# vtk DataFile Version 3.0
#This file was generated by the deal.II library on 2023/6/6 at 11:21:19
ASCII
DATASET UNSTRUCTURED_GRID

POINTS 20376 double
-0.234107 2.64994 0
-0.227516 2.53381 0
-0.148062 2.70788 0
-0.0488338 2.53355 0
-0.326744 2.70814 0
-0.406198 2.53407 0
-0.234107 2.64994 0
-0.227516 2.53381 0
-0.326744 2.70814 0
-0.234107 2.64994 0
-0.247289 2.8822 0
-0.148062 2.70788 0
0.234107 -2.64994 0
0.227516 -2.53381 0
0.148062 -2.70788 0
0.0488338 -2.53355 0
0.326744 -2.70814 0
0.406198 -2.53407 0
0.234107 -2.64994 0
0.227516 -2.53381 0
0.326744 -2.70814 0
0.234107 -2.64994 0
0.247289 -2.8822 0
0.148062 -2.70788 0
1.72873 1.44878 0
1.64986 1.47916 0
1.73551 1.33483 0
1.58454 1.28164 0
1.80083 1.53235 0
1.71518 1.67668 0
1.72873 1.44878 0
1.64986 1.47916 0
1.80083 1.53235 0
1.72873 1.44878 0
1.88648 1.38801 0
1.73551 1.33483 0
-1.72873 -1.44878 0
-1.64986 -1.47916 0
-1.73551 -1.33483 0
-1.58454 -1.28164 0
-1.80083 -1.53235 0
-1.71518 -1.67668 0
-1.72873 -1.44878 0
-1.64986 -1.47916 0
-1.80083 -1.53235 0
-1.72873 -1.44878 0
-1.88648 -1.38801 0
-1.73551 -1.33483 0
1.57295 1.52968 0
1.50183 1.45618 0
1.64986 1.47916 0
1.58454 1.28164 0
1.56715 1.65369 0
1.41913 1.63071 0
1.57295 1.52968 0
1.50183 1.45618 0
1.56715 1.65369 0
1.57295 1.52968 0
1.71518 1.67668 0
1.64986 1.47916 0
-1.57295 -1.52968 0
-1.50183 -1.45618 0
-1.64986 -1.47916 0
-1.58454 -1.28164 0
-1.56715 -1.65369 0
-1.41913 -1.63071 0
-1.57295 -1.52968 0
-1.50183 -1.45618 0
-1.56715 -1.65369 0
-1.57295 -1.52968 0
-1.71518 -1.67668 0
-1.64986 -1.47916 0
-0.224169 -2.20805 0
-0.185588 -2.09401 0
-0.328442 -2.28776 0
-0.355555 -2.13939 0
-0.158475 -2.24238 0
-0.0156216 -2.04863 0
-0.224169 -2.20805 0
-0.185588 -2.09401 0
-0.158475 -2.24238 0
-0.224169 -2.20805 0
-0.301329 -2.43613 0
-0.328442 -2.28776 0
0.224169 2.20805 0
0.185588 2.09401 0
0.328442 2.28776 0
0.355555 2.13939 0
0.158475 2.24238 0
0.0156216 2.04863 0
0.224169 2.20805 0
0.185588 2.09401 0
0.158475 2.24238 0
0.224169 2.20805 0
0.301329 2.43613 0
0.328442 2.28776 0
3.03621 0.633312 0
2.91961 0.608623 0
3.12304 0.524804 0
2.97668 0.366918 0
3.06598 0.766509 0
2.86255 0.850328 0
3.03621 0.633312 0
2.91961 0.608623 0
3.06598 0.766509 0
3.03621 0.633312 0
3.26941 0.682689 0
3.12304 0.524804 0
-3.03621 -0.633312 0
-2.91961 -0.608623 0
-3.12304 -0.524804 0
-2.97668 -0.366918 0
-3.06598 -0.766509 0
-2.86255 -0.850328 0
-3.03621 -0.633312 0
-2.91961 -0.608623 0
-3.06598 -0.766509 0
-3.03621 -0.633312 0
-3.26941 -0.682689 0
-3.12304 -0.524804 0
2.21858 -0.275494 0
2.22271 -0.390986 0
2.30524 -0.215758 0
2.40017 -0.387008 0
2.12778 -0.219736 0
2.04525 -0.394964 0
2.21858 -0.275494 0
2.22271 -0.390986 0
2.12778 -0.219736 0
2.21858 -0.275494 0
2.21031 -0.0445084 0
2.30524 -0.215758 0
-2.21858 0.275494 0
-2.22271 0.390986 0
-2.30524 0.215758 0
-2.40017 0.387008 0
-2.12778 0.219736 0
-2.04525 0.394964 0
-2.21858 0.275494 0
-2.22271 0.390986 0
-2.12778 0.219736 0
-2.21858 0.275494 0
-2.21031 0.0445084 0
-2.30524 0.215758 0
-0.535575 -2.50293 0
-0.652698 -2.53632 0
-0.503183 -2.55616 0
-0.705036 -2.67619 0
-0.450844 -2.4163 0
-0.600359 -2.39646 0
-0.535575 -2.50293 0
-0.652698 -2.53632 0
-0.450844 -2.4163 0
-0.535575 -2.50293 0
-0.301329 -2.43613 0
-0.503183 -2.55616 0
0.535575 2.50293 0
0.652698 2.53632 0
0.503183 2.55616 0
0.705036 2.67619 0
0.450844 2.4163 0
0.600359 2.39646 0
0.535575 2.50293 0
0.652698 2.53632 0
0.450844 2.4163 0
0.535575 2.50293 0
0.301329 2.43613 0
0.503183 2.55616 0
-0.234653 -0.866894 0
-0.177748 -0.897674 0
-0.239213 -0.780781 0
-0.129964 -0.756231 0
-0.286997 -0.922225 0
-0.225533 -1.03912 0
-0.234653 -0.866894 0
-0.177748 -0.897674 0
-0.286997 -0.922225 0
-0.234653 -0.866894 0
-0.348461 -0.805332 0
-0.239213 -0.780781 0
0.234653 0.866894 0
0.177748 0.897674 0
0.239213 0.780781 0
0.129964 0.756231 0
0.286997 0.922225 0
0.225533 1.03912 0
0.234653 0.866894 0
0.177748 0.897674 0
0.286997 0.922225 0
0.234653 0.866894 0
0.348461 0.805332 0
0.239213 0.780781 0
-2.48549 2.17811 0
-2.5223 2.052 0
-2.36105 2.23388 0
-2.31022 2.03745 0
-2.57313 2.24844 0
-2.73437 2.06656 0
-2.48549 2.17811 0
-2.5223 2.052 0
-2.57313 2.24844 0
-2.48549 2.17811 0
-2.41189 2.43032 0
-2.36105 2.23388 0
2.48549 -2.17811 0
2.5223 -2.052 0
2.36105 -2.23388 0
2.31022 -2.03745 0
2.57313 -2.24844 0
2.73437 -2.06656 0
2.48549 -2.17811 0
2.5223 -2.052 0
2.57313 -2.24844 0
2.48549 -2.17811 0
2.41189 -2.43032 0
2.36105 -2.23388 0
1.18715 -0.143724 0
1.19709 -0.21672 0
1.26326 -0.120099 0
1.35926 -0.242467 0
1.10109 -0.0943531 0
1.03492 -0.190974 0
1.18715 -0.143724 0
1.19709 -0.21672 0
1.10109 -0.0943531 0
1.18715 -0.143724 0
1.16725 0.00226757 0
1.26326 -0.120099 0
-1.18715 0.143724 0
-1.19709 0.21672 0
-1.26326 0.120099 0
-1.35926 0.242467 0
-1.10109 0.0943531 0
-1.03492 0.190974 0
-1.18715 0.143724 0
-1.19709 0.21672 0
-1.10109 0.0943531 0
-1.18715 0.143724 0
-1.16725 -0.00226757 0
-1.26326 0.120099 0
1.10544 -0.351386 0
1.17597 -0.511799 0
1.19005 -0.31508 0
1.26762 -0.377133 0
1.03492 -0.190974 0
1.10544 -0.351386 0
1.19709 -0.21672 0
1.19005 -0.31508 0
1.19709 -0.21672 0
1.19005 -0.31508 0
1.35926 -0.242467 0
1.26762 -0.377133 0
-1.10544 0.351386 0
-1.17597 0.511799 0
-1.19005 0.31508 0
-1.26762 0.377133 0
-1.03492 0.190974 0
-1.10544 0.351386 0
-1.19709 0.21672 0
-1.19005 0.31508 0
-1.19709 0.21672 0
-1.19005 0.31508 0
-1.35926 0.242467 0
-1.26762 0.377133 0
-0.2729 -4.20604 0
-0.1636 -4.31972 0
-0.251329 -4.04568 0
-0.0111584 -4.11268 0
-0.40377 -4.25272 0
-0.316041 -4.52676 0
-0.2729 -4.20604 0
-0.1636 -4.31972 0
-0.40377 -4.25272 0
-0.2729 -4.20604 0
-0.4915 -3.97869 0
-0.251329 -4.04568 0
0.2729 4.20604 0
0.1636 4.31972 0
0.251329 4.04568 0
0.0111584 4.11268 0
0.40377 4.25272 0
0.316041 4.52676 0
0.2729 4.20604 0
0.1636 4.31972 0
0.40377 4.25272 0
0.2729 4.20604 0
0.4915 3.97869 0
0.251329 4.04568 0
-1.41515 2.98671 0
-1.4106 2.8591 0
-1.34745 3.09993 0
-1.27066 2.95794 0
-1.4874 3.00109 0
-1.55055 2.76027 0
-1.41515 2.98671 0
-1.4106 2.8591 0
-1.4874 3.00109 0
-1.41515 2.98671 0
-1.42424 3.24192 0
-1.34745 3.09993 0
1.41515 -2.98671 0
1.4106 -2.8591 0
1.34745 -3.09993 0
1.27066 -2.95794 0
1.4874 -3.00109 0
1.55055 -2.76027 0
1.41515 -2.98671 0
1.4106 -2.8591 0
1.4874 -3.00109 0
1.41515 -2.98671 0
1.42424 -3.24192 0
1.34745 -3.09993 0
-1.84853 -0.507752 0
-1.93402 -0.485126 0
-1.79826 -0.626536 0
-1.91896 -0.700067 0
-1.81331 -0.411595 0
-1.94908 -0.270185 0
-1.84853 -0.507752 0
-1.93402 -0.485126 0
-1.81331 -0.411595 0
-1.84853 -0.507752 0
-1.67755 -0.553005 0
-1.79826 -0.626536 0
1.84853 0.507752 0
1.93402 0.485126 0
1.79826 0.626536 0
1.91896 0.700067 0
1.81331 0.411595 0
1.94908 0.270185 0
1.84853 0.507752 0
1.93402 0.485126 0
1.81331 0.411595 0
1.84853 0.507752 0
1.67755 0.553005 0
1.79826 0.626536 0
-0.329067 -2.61971 0
-0.45439 -2.63854 0
-0.356806 -2.80329 0
-0.530921 -2.73974 0
-0.503183 -2.55616 0
-0.705036 -2.67619 0
-0.45439 -2.63854 0
-0.530921 -2.73974 0
-0.301329 -2.43613 0
-0.503183 -2.55616 0
-0.329067 -2.61971 0
-0.45439 -2.63854 0
0.329067 2.61971 0
0.45439 2.63854 0
0.356806 2.80329 0
0.530921 2.73974 0
0.503183 2.55616 0
0.705036 2.67619 0
0.45439 2.63854 0
0.530921 2.73974 0
0.301329 2.43613 0
0.503183 2.55616 0
0.329067 2.61971 0
0.45439 2.63854 0
-0.474981 -3.47346 0
-0.591339 -3.39347 0
-0.481221 -3.61422 0
-0.720178 -3.595 0
-0.352382 -3.41269 0
-0.4625 -3.19195 0
-0.474981 -3.47346 0
-0.591339 -3.39347 0
-0.352382 -3.41269 0
-0.474981 -3.47346 0
-0.242263 -3.63344 0
-0.481221 -3.61422 0
0.474981 3.47346 0
0.591339 3.39347 0
0.481221 3.61422 0
0.720178 3.595 0
0.352382 3.41269 0
0.4625 3.19195 0
0.474981 3.47346 0
0.591339 3.39347 0
0.352382 3.41269 0
0.474981 3.47346 0
0.242263 3.63344 0
0.481221 3.61422 0
4.67501 -2.76875 0
4.70432 -2.91096 0
4.8082 -2.74217 0
5 -3 0
4.51252 -2.65312 0
4.40863 -2.82191 0
4.67501 -2.76875 0
4.70432 -2.91096 0
4.51252 -2.65312 0
4.67501 -2.76875 0
4.6164 -2.48433 0
4.8082 -2.74217 0
-4.67501 2.76875 0
-4.70432 2.91096 0
-4.8082 2.74217 0
-5 3 0
-4.51252 2.65312 0
-4.40863 2.82191 0
-4.67501 2.76875 0
-4.70432 2.91096 0
-4.51252 2.65312 0
-4.67501 2.76875 0
-4.6164 2.48433 0
-4.8082 2.74217 0
1.91766 -2.44353 0
2.02963 -2.47202 0
1.85523 -2.31429 0
2.01675 -2.24201 0
1.86811 -2.54429 0
2.04251 -2.70202 0
1.91766 -2.44353 0
2.02963 -2.47202 0
1.86811 -2.54429 0
1.91766 -2.44353 0
1.69371 -2.38656 0
1.85523 -2.31429 0
-1.91766 2.44353 0
-2.02963 2.47202 0
-1.85523 2.31429 0
-2.01675 2.24201 0
-1.86811 2.54429 0
-2.04251 2.70202 0
-1.91766 2.44353 0
-2.02963 2.47202 0
-1.86811 2.54429 0
-1.91766 2.44353 0
-1.69371 2.38656 0
-1.85523 2.31429 0
-4.67456 -2.76999 0
-4.70348 -2.91158 0
-4.51185 -2.65499 0
-4.40697 -2.82317 0
-4.80836 -2.7434 0
-5 -3 0
-4.67456 -2.76999 0
-4.70348 -2.91158 0
-4.80836 -2.7434 0
-4.67456 -2.76999 0
-4.61673 -2.48681 0
-4.51185 -2.65499 0
4.67456 2.76999 0
4.70348 2.91158 0
4.51185 2.65499 0
4.40697 2.82317 0
4.80836 2.7434 0
5 3 0
4.67456 2.76999 0
4.70348 2.91158 0
4.80836 2.7434 0
4.67456 2.76999 0
4.61673 2.48681 0
4.51185 2.65499 0
-0.281088 3.40128 0
-0.175786 3.50389 0
-0.381921 3.46032 0
-0.272148 3.72458 0
-0.285559 3.23963 0
-0.0794239 3.2832 0
-0.281088 3.40128 0
-0.175786 3.50389 0
-0.285559 3.23963 0
-0.281088 3.40128 0
-0.491694 3.19607 0
-0.381921 3.46032 0
0.281088 -3.40128 0
0.175786 -3.50389 0
0.381921 -3.46032 0
0.272148 -3.72458 0
0.285559 -3.23963 0
0.0794239 -3.2832 0
0.281088 -3.40128 0
0.175786 -3.50389 0
0.285559 -3.23963 0
0.281088 -3.40128 0
0.491694 -3.19607 0
0.381921 -3.46032 0
1.76226 -2.61628 0
1.79653 -2.73114 0
1.86811 -2.54429 0
2.04251 -2.70202 0
1.76226 -2.61628 0
1.62213 -2.57341 0
1.79653 -2.73114 0
1.55055 -2.76027 0
1.76226 -2.61628 0
1.86811 -2.54429 0
1.62213 -2.57341 0
1.69371 -2.38656 0
-1.76226 2.61628 0
-1.79653 2.73114 0
-1.86811 2.54429 0
-2.04251 2.70202 0
-1.76226 2.61628 0
-1.62213 2.57341 0
-1.79653 2.73114 0
-1.55055 2.76027 0
-1.76226 2.61628 0
-1.86811 2.54429 0
-1.62213 2.57341 0
-1.69371 2.38656 0
-0.99378 0.306315 0
-1.05451 0.37481 0
-1.03492 0.190974 0
[...]
POINT_DATA 20376
SCALARS solution double 1
LOOKUP_TABLE default
2.63894 2.52196 2.69722 2.5216 2.69764 2.52249 2.63894 2.52196 2.69764 2.63894 2.87273 2.69722 -2.63894 -2.52196 -2.69722 -2.5216 -2.69764 -2.52249 -2.63894 -2.52196 -2.69764 -2.63894 -2.87273 -2.69722 1.43952 1.46929 1.32568 1.27123 1.5236 1.66745 1.43952 1.46929 1.5236 1.43952 1.37991 1.32568 -1.43952 -1.46929 -1.32568 -1.27123 -1.5236 -1.66745 -1.43952 -1.46929 -1.5236 -1.43952 -1.37991 -1.32568 1.51924 1.44503 1.46929 1.27123 1.6434 1.61919 1.51924 1.44503 1.6434 1.51924 1.66745 1.46929 -1.51924 -1.44503 -1.46929 -1.27123 -1.6434 -1.61919 -1.51924 -1.44503 -1.6434 -1.51924 -1.66745 -1.46929 -2.19352 -2.0783 -2.27413 -2.1245 -2.22809 -2.03231 -2.19352 -2.0783 -2.22809 -2.19352 -2.42365 -2.27413 2.19352 2.0783 2.27413 2.1245 2.22809 2.03231 2.19352 2.0783 2.22809 2.19352 2.42365 2.27413 0.631545 0.60672 0.523416 0.365793 0.764495 0.847678 0.631545 0.60672 0.764495 0.631545 0.681169 0.523416 -0.631545 -0.60672 -0.523416 -0.365793 -0.764495 -0.847678 -0.631545 -0.60672 -0.764495 -0.631545 -0.681169 -0.523416 -0.273689 -0.388496 -0.214435 -0.384941 -0.218157 -0.39192 -0.273689 -0.388496 -0.218157 -0.273689 -0.0442069 -0.214435 0.273689 0.388496 0.214435 0.384941 0.218157 0.39192 0.273689 0.388496 0.218157 0.273689 0.0442069 0.214435 -2.4914 -2.52532 -2.54492 -2.66617 -2.40394 -2.38436 -2.4914 -2.52532 -2.40394 -2.4914 -2.42365 -2.54492 2.4914 2.52532 2.54492 2.66617 2.40394 2.38436 2.4914 2.52532 2.40394 2.4914 2.42365 2.54492 -0.825978 -0.857139 -0.735915 -0.70695 -0.884688 -1.00453 -0.825978 -0.857139 -0.884688 -0.825978 -0.765412 -0.735915 0.825978 0.857139 0.735915 0.70695 0.884688 1.00453 0.825978 0.857139 0.884688 0.825978 0.765412 0.735915 2.17306 2.04701 2.22845 2.03164 2.24373 2.06227 2.17306 2.04701 2.24373 2.17306 2.42529 2.22845 -2.17306 -2.04701 -2.22845 -2.03164 -2.24373 -2.06227 -2.17306 -2.04701 -2.24373 -2.17306 -2.42529 -2.22845 -0.139963 -0.211315 -0.117248 -0.237805 -0.0915064 -0.184457 -0.139963 -0.211315 -0.0915064 -0.139963 0.00221146 -0.117248 0.139963 0.211315 0.117248 0.237805 0.0915064 0.184457 0.139963 0.211315 0.0915064 0.139963 -0.00221146 0.117248 -0.341466 -0.500267 -0.307358 -0.369202 -0.184457 -0.341466 -0.211315 -0.307358 -0.211315 -0.307358 -0.237805 -0.369202 0.341466 0.500267 0.307358 0.369202 0.184457 0.341466 0.211315 0.307358 0.211315 0.307358 0.237805 0.369202 -4.20297 -4.31709 -4.04195 -4.1092 -4.24987 -4.52496 -4.20297 -4.31709 -4.24987 -4.20297 -3.97476 -4.04195 4.20297 4.31709 4.04195 4.1092 4.24987 4.52496 4.20297 4.31709 4.24987 4.20297 3.97476 4.04195 2.98002 2.85192 3.0935 2.95076 2.99463 2.75315 2.98002 2.85192 2.99463 2.98002 3.23618 3.0935 -2.98002 -2.85192 -3.0935 -2.95076 -2.99463 -2.75315 -2.98002 -2.85192 -2.99463 -2.98002 -3.23618 -3.0935 -0.502995 -0.480949 -0.620586 -0.694394 -0.407501 -0.267808 -0.502995 -0.480949 -0.407501 -0.502995 -0.546784 -0.620586 0.502995 0.480949 0.620586 0.694394 0.407501 0.267808 0.502995 0.480949 0.407501 0.502995 0.546784 0.620586 -2.60862 -2.62776 -2.79343 -2.72973 -2.54492 -2.66617 -2.62776 -2.72973 -2.42365 -2.54492 -2.60862 -2.62776 2.60862 2.62776 2.79343 2.72973 2.54492 2.66617 2.62776 2.72973 2.42365 2.54492 2.60862 2.62776 -3.46731 -3.38706 -3.60871 -3.5896 -3.40617 -3.18441 -3.46731 -3.38706 -3.40617 -3.46731 -3.62791 -3.60871 3.46731 3.38706 3.60871 3.5896 3.40617 3.18441 3.46731 3.38706 3.40617 3.46731 3.62791 3.60871 -2.76833 -2.91059 -2.74192 -3 -2.65248 -2.82116 -2.76833 -2.91059 -2.65248 -2.76833 -2.48382 -2.74192 2.76833 2.91059 2.74192 3 2.65248 2.82116 2.76833 2.91059 2.65248 2.76833 2.48382 2.74192 -2.43679 -2.46575 -2.307 -2.23526 -2.53763 -2.69629 -2.43679 -2.46575 -2.53763 -2.43679 -2.37879 -2.307 2.43679 2.46575 2.307 2.23526 2.53763 2.69629 2.43679 2.46575 2.53763 2.43679 2.37879 2.307 -2.76958 -2.91122 -2.65434 -2.82241 -2.74316 -3 -2.76958 -2.91122 -2.74316 -2.76958 -2.48629 -2.65434 2.76958 2.91122 2.65434 2.82241 2.74316 3 2.76958 2.91122 2.74316 2.76958 2.48629 2.65434 3.39467 3.49774 3.45405 3.71948 3.23219 3.27592 3.39467 3.49774 3.23219 3.39467 3.18857 3.45405 -3.39467 -3.49774 -3.45405 -3.71948 -3.23219 -3.27592 -3.39467 -3.49774 -3.23219 -3.39467 -3.18857 -3.45405 -2.60942 -2.72472 -2.53763 -2.69629 -2.60942 -2.56592 -2.72472 -2.75315 -2.60942 -2.53763 -2.56592 -2.37879 2.60942 2.72472 2.53763 2.69629 2.60942 2.56592 2.72472 2.75315 2.60942 2.53763 2.56592 2.37879 0.295625 0.363555 0.184457 0.341466 0.363555 0.453843 0.341466 0.500267 0.295625 0.406983 0.363555 0.453843 -0.295625 -0.363555 -0.184457 -0.341466 -0.363555 -0.453843 -0.341466 -0.500267 -0.295625 -0.406983 -0.363555 -0.453843 -2.22809 -2.32593 -2.03231 -2.27717 -2.32593 -2.47253 -2.27717 -2.5216 -2.22809 -2.42365 -2.32593 -2.47253 2.22809 2.32593 2.03231 2.27717 2.32593 2.47253 2.27717 2.5216 2.22809 2.42365 2.32593 2.47253 1.53873 1.49715 1.49781 1.37316 1.62129 1.62064 1.53873 1.49715 1.62129 1.53873 1.6223 1.49781 -1.53873 -1.49715 -1.49781 -1.37316 -1.62129 -1.62064 -1.53873 -1.49715 -1.62129 -1.53873 -1.6223 -1.49781 -3.51749 -3.66107 -3.36516 -3.5 -3.52623 -3.8222 -3.51749 -3.66107 -3.52623 -3.51749 -3.23029 -3.36516 3.51749 3.66107 3.36516 3.5 3.52623 3.8222 3.51749 3.66107 3.52623 3.51749 3.23029 3.36516 -3.51757 -3.66108 -3.52635 -3.82221 -3.36527 -3.5 -3.51757 -3.66108 -3.36527 -3.51757 -3.23051 -3.52635 3.51757 3.66108 3.52635 3.82221 3.36527 3.5 3.51757 3.66108 3.36527 3.51757 3.23051 3.52635 1.84783 1.91049 1.78768 1.85311 1.84531 1.96788 1.84783 1.91049 1.84531 1.84783 1.72262 1.78768 -1.84783 -1.91049 -1.78768 -1.85311 -1.84531 -1.96788 -1.84783 -1.91049 -1.84531 -1.84783 -1.72262 -1.78768 -0.401961 -0.335596 -0.406794 -0.279333 -0.463421 -0.39192 -0.401961 -0.335596 -0.463421 -0.401961 -0.534479 -0.406794 0.401961 0.335596 0.406794 0.279333 0.463421 0.39192 0.401961 0.335596 0.463421 0.401961 0.534479 0.406794 -0.0300026 -0.148292 -0.0157519 -0.200419 -0.214435 -0.384941 -0.148292 -0.200419 -0.0442069 -0.214435 -0.0300026 -0.148292 0.0300026 0.148292 0.0157519 0.200419 0.214435 0.384941 0.148292 0.200419 0.0442069 0.214435 0.0300026 0.148292 2.8851 2.76397 2.79343 2.65748 2.74932 2.5216 2.76397 2.65748 2.97683 2.74932 2.8851 2.76397 -2.8851 -2.76397 -2.79343 -2.65748 -2.74932 -2.5216 -2.76397 -2.65748 -2.97683 -2.74932 -2.8851 -2.76397 2.79043 2.69722 2.74932 2.5216 2.92474 2.87273 2.79043 2.69722 2.92474 2.79043 2.97683 2.74932 -2.79043 -2.69722 -2.74932 -2.5216 -2.92474 -2.87273 -2.79043 -2.69722 -2.92474 -2.79043 -2.97683 -2.74932 3.02867 2.92498 2.99463 2.75315 3.02867 3.16639 2.92498 3.09668 3.02867 2.99463 3.16639 3.23618 -3.02867 -2.92498 -2.99463 -2.75315 -3.02867 -3.16639 -2.92498 -3.09668 -3.02867 -2.99463 -3.16639 -3.23618 -3.70611 -3.57461 -3.78371 -3.59832 -3.75999 -3.55095 -3.70611 -3.57461 -3.75999 -3.70611 -3.96903 -3.78371 3.70611 3.57461 3.78371 3.59832 3.75999 3.55095 3.70611 3.57461 3.75999 3.70611 3.96903 3.78371 3.11241 3.07436 3.23219 3.27592 3.11241 3.03069 3.07436 2.87273 3.11241 3.23219 3.03069 3.18857 -3.11241 -3.07436 -3.23219 -3.27592 -3.11241 -3.03069 -3.07436 -2.87273 -3.11241 -3.23219 -3.03069 -3.18857 -0.373072 -0.286222 -0.407501 -0.267808 -0.373072 -0.425402 -0.286222 -0.304341 -0.373072 -0.407501 -0.425402 -0.546784 0.373072 0.286222 0.407501 0.267808 0.373072 0.425402 0.286222 0.304341 0.373072 0.407501 0.425402 0.546784 0.692125 0.583387 0.847678 0.60672 0.583387 0.451322 0.60672 0.365793 0.692125 0.536704 0.583387 0.451322 -0.692125 -0.583387 -0.847678 -0.60672 -0.583387 -0.451322 -0.60672 -0.365793 -0.692125 -0.536704 -0.583387 -0.451322 -0.187987 -0.247302 -0.00608782 -0.186029 -0.367885 -0.365793 -0.247302 -0.186029 -0.369939 -0.367885 -0.187987 -0.247302 0.187987 0.247302 0.00608782 0.186029 0.367885 0.365793 0.247302 0.186029 0.369939 0.367885 0.187987 0.247302 1.27591 1.36506 1.32337 1.54921 1.13929 1.18098 1.27591 1.36506 1.13929 1.27591 1.09754 1.32337 -1.27591 -1.36506 -1.32337 -1.54921 -1.13929 -1.18098 -1.27591 -1.36506 -1.13929 -1.27591 -1.09754 -1.32337 1.5266e-07 0 -0.0340592 0 0.0340598 0 1.5266e-07 0 0.0340598 1.5266e-07 -1.89198e-07 -0.0340592 -1.5266e-07 0 0.0340592 0 -0.0340598 0 -1.5266e-07 0 -0.0340598 -1.5266e-07 1.89198e-07 0.0340592 -3.45192 -3.62791 -3.5411 -3.67364 -3.45192 -3.5411 -3.27592 -3.49774 -3.5411 -3.67364 -3.49774 -3.71948 3.45192 3.62791 3.5411 3.67364 3.45192 3.5411 3.27592 3.49774 3.5411 3.67364 3.49774 3.71948 3.3935 3.50213 3.59832 3.65885 3.45405 3.71948 3.50213 3.65885 3.18857 3.45405 3.3935 3.50213 -3.3935 -3.50213 -3.59832 -3.65885 -3.45405 -3.71948 -3.50213 -3.65885 -3.18857 -3.45405 -3.3935 -3.50213 3.86858 4.1092 3.81886 3.91434 3.62791 3.86858 3.67364 3.81886 3.67364 3.81886 3.71948 3.91434 -3.86858 -4.1092 -3.81886 -3.91434 -3.62791 -3.86858 -3.67364 -3.81886 -3.67364 -3.81886 -3.71948 -3.91434 2.91243 2.93742 3.02043 3.17849 2.77944 2.69629 2.91243 2.93742 2.77944 2.91243 2.86246 3.02043 -2.91243 -2.93742 -3.02043 -3.17849 -2.77944 -2.69629 -2.91243 -2.93742 -2.77944 -2.91243 -2.86246 -3.02043 -2.91324 -2.94346 -2.7793 -2.70564 -3.01698 -3.18121 -2.91324 -2.94346 -3.01698 -2.91324 -2.85284 -2.7793 2.91324 2.94346 2.7793 2.70564 3.01698 3.18121 2.91324 2.94346 3.01698 2.91324 2.85284 2.7793 2.42707 2.38785 2.36186 2.21828 2.53148 2.55748 2.42707 2.38785 2.53148 2.42707 2.50543 2.36186 -2.42707 -2.38785 -2.36186 -2.21828 -2.53148 -2.55748 -2.42707 -2.38785 -2.53148 -2.42707 -2.50543 -2.36186 -2.16643 -2.18918 -2.24336 -2.36561 -2.06673 -2.01267 -2.16643 -2.18918 -2.06673 -2.16643 -2.12089 -2.24336 2.16643 2.18918 2.24336 2.36561 2.06673 2.01267 2.16643 2.18918 2.06673 2.16643 2.12089 2.24336 -2.40767 -2.36115 -2.52905 -2.55739 -2.33281 -2.16499 -2.40767 -2.36115 -2.33281 -2.40767 -2.50064 -2.52905 2.40767 2.36115 2.52905 2.55739 2.33281 2.16499 2.40767 2.36115 2.33281 2.40767 2.50064 2.52905 2.51726 2.52605 2.36531 2.23097 2.66043 2.82116 2.51726 2.52605 2.66043 2.51726 2.49966 2.36531 -2.51726 -2.52605 -2.36531 -2.23097 -2.66043 -2.82116 -2.51726 -2.52605 -2.66043 -2.51726 -2.49966 -2.36531 1.55057 1.63596 1.5236 1.66745 1.55057 1.49215 1.63596 1.6044 1.55057 1.5236 1.49215 1.37991 -1.55057 -1.63596 -1.5236 -1.66745 -1.55057 -1.49215 -1.63596 -1.6044 -1.55057 -1.5236 -1.49215 -1.37991 2.51917 2.52777 2.6622 2.82241 2.36755 2.23315 2.51917 2.52777 2.36755 2.51917 2.50194 2.6622 -2.51917 -2.52777 -2.6622 -2.82241 -2.36755 -2.23315 -2.51917 -2.52777 -2.36755 -2.51917 -2.50194 -2.6622 -2.49191 -2.66128 -2.5 -2.75 -2.74192 -3 -2.66128 -2.75 -2.48382 -2.74192 -2.49191 -2.66128 2.49191 2.66128 2.5 2.75 2.74192 3 2.66128 2.75 2.48382 2.74192 2.49191 2.66128 3.70095 3.66384 3.43153 3.51051 3.78005 3.5896 3.66384 3.51051 3.97041 3.78005 3.70095 3.66384 -3.70095 -3.66384 -3.43153 -3.51051 -3.78005 -3.5896 -3.66384 -3.51051 -3.97041 -3.78005 -3.70095 -3.66384 1.00587 0.901966 1.07932 0.88668 0.813393 0.694394 0.901966 0.88668 0.932263 0.813393 1.00587 0.901966 -1.00587 -0.901966 -1.07932 -0.88668 -0.813393 -0.694394 -0.901966 -0.88668 -0.932263 -0.813393 -1.00587 -0.901966 2.63681 2.70251 2.53148 2.55748 2.63681 2.67643 2.70251 2.84748 2.63681 2.53148 2.67643 2.50543 -2.63681 -2.70251 -2.53148 -2.55748 -2.63681 -2.67643 -2.70251 -2.84748 -2.63681 -2.53148 -2.67643 -2.50543 -0.382698 -0.486595 -0.267808 -0.480949 -0.486595 -0.596166 -0.480949 -0.694394 -0.382698 -0.497793 -0.486595 -0.596166 0.382698 0.486595 0.267808 0.480949 0.486595 0.596166 0.480949 0.694394 0.382698 0.497793 0.486595 0.596166 -3.37128 -3.40617 -3.46473 -3.62791 -3.37128 -3.24293 -3.40617 -3.18441 -3.37128 -3.46473 -3.24293 -3.30151 3.37128 3.40617 3.46473 3.62791 3.37128 3.24293 3.40617 3.18441 3.37128 3.46473 3.24293 3.30151 -2.12429 -2.19855 -2.00874 -2.04161 -2.16559 -2.35546 -2.12429 -2.19855 -2.16559 -2.12429 -1.97583 -2.00874 2.12429 2.19855 2.00874 2.04161 2.16559 2.35546 2.12429 2.19855 2.16559 2.12429 1.97583 2.00874 0.0183759 -0.080682 0.0206478 -0.175123 0.115159 0.0138294 0.0183759 -0.080682 0.115159 0.0183759 0.216403 0.0206478 -0.0183759 0.080682 -0.0206478 0.175123 -0.115159 -0.0138294 -0.0183759 0.080682 -0.115159 -0.0183759 -0.216403 -0.0206478 0.53295 0.522396 0.46062 0.367187 0.615843 0.677712 0.53295 0.522396 0.615843 0.53295 0.55396 0.46062 -0.53295 -0.522396 -0.46062 -0.367187 -0.615843 -0.677712 -0.53295 -0.522396 -0.615843 -0.53295 -0.55396 -0.46062 1.92886 1.96313 2.06227 2.04701 1.96313 1.91352 2.04701 2.03164 1.92886 1.79544 1.96313 1.91352 -1.92886 -1.96313 -2.06227 -2.04701 -1.96313 -1.91352 -2.04701 -2.03164 -1.92886 -1.79544 -1.96313 -1.91352 2.33854 2.33003 2.45654 2.55748 2.33854 2.22903 2.33003 2.10263 2.33854 2.45654 2.22903 2.35546 -2.33854 -2.33003 -2.45654 -2.55748 -2.33854 -2.22903 -2.33003 -2.10263 -2.33854 -2.45654 -2.22903 -2.35546 2.24373 2.34832 2.06227 2.30981 2.34832 2.49141 2.30981 2.55739 2.24373 2.42529 2.34832 2.49141 -2.24373 -2.34832 -2.06227 -2.30981 -2.34832 -2.49141 -2.30981 -2.55739 -2.24373 -2.42529 -2.34832 -2.49141 -1.113 -1.197 -1.09764 -1.25003 -1.0443 -1.14351 -1.113 -1.197 -1.0443 -1.113 -0.945311 -1.09764 1.113 1.197 1.09764 1.25003 1.0443 1.14351 1.113 1.197 1.0443 1.113 0.945311 1.09764 -2.67403 -2.63518 -2.84747 -2.70246 -2.52905 -2.55739 -2.63518 -2.70246 -2.50064 -2.52905 -2.67403 -2.63518 2.67403 2.63518 2.84747 2.70246 2.52905 2.55739 2.63518 2.70246 2.50064 2.52905 2.67403 2.63518 0.698039 0.770124 0.615843 0.677712 0.698039 0.708133 0.770124 0.862407 0.698039 0.615843 0.708133 0.55396 -0.698039 -0.770124 -0.615843 -0.677712 -0.698039 -0.708133 -0.770124 -0.862407 -0.698039 -0.615843 -0.708133 -0.55396 4.27697 4.42806 4.24987 4.52496 4.27697 4.153 4.42806 4.33119 4.27697 4.24987 4.153 3.97476 -4.27697 -4.42806 -4.24987 -4.52496 -4.27697 -4.153 -4.42806 -4.33119 -4.27697 -4.24987 -4.153 -3.97476 -2.6621 -2.75 -2.74316 -3 -2.6621 -2.49315 -2.75 -2.5 -2.6621 -2.74316 -2.49315 -2.48629 2.6621 2.75 2.74316 3 2.6621 2.49315 2.75 2.5 2.6621 2.74316 2.49315 2.48629 -3.40178 -3.45192 -3.28869 -3.27592 -3.40178 -3.46473 -3.45192 -3.62791 -3.40178 -3.28869 -3.46473 -3.30151 3.40178 3.45192 3.28869 3.27592 3.40178 3.46473 3.45192 3.62791 3.40178 3.28869 3.46473 3.30151 2.95108 3.03069 2.99027 3.18857 2.95108 2.83226 3.03069 2.87273 2.95108 2.99027 2.83226 2.79186 -2.95108 -3.03069 -2.99027 -3.18857 -2.95108 -2.83226 -3.03069 -2.87273 -2.95108 -2.99027 -2.83226 -2.79186 -0.000940716 -0.0796919 -0.00408866 -0.120941 -0.117248 -0.237805 -0.0796919 -0.120941 0.00221146 -0.117248 -0.000940716 -0.0796919 0.000940716 0.0796919 0.00408866 0.120941 0.117248 0.237805 0.0796919 0.120941 -0.00221146 0.117248 0.000940716 0.0796919 -2.25328 -2.29075 -2.38572 -2.37562 -2.24336 -2.36561 -2.29075 -2.37562 -2.12089 -2.24336 -2.25328 -2.29075 2.25328 2.29075 2.38572 2.37562 2.24336 2.36561 2.29075 2.37562 2.12089 2.24336 2.25328 2.29075 -3.4949 -3.62723 -3.52623 -3.8222 -3.4949 -3.33124 -3.62723 -3.43222 -3.4949 -3.52623 -3.33124 -3.23029 3.4949 3.62723 3.52623 3.8222 3.4949 3.33124 3.62723 3.43222 3.4949 3.52623 3.33124 3.23029 -3.33137 -3.49499 -3.43224 -3.62725 -3.52635 -3.82221 -3.49499 -3.62725 -3.23051 -3.52635 -3.33137 -3.49499 3.33137 3.49499 3.43224 3.62725 3.52635 3.82221 3.49499 3.62725 3.23051 3.52635 3.33137 3.49499 1.49605 1.39953 1.54482 1.4002 1.54381 1.39872 1.49605 1.39953 1.54381 1.49605 1.68915 1.54482 -1.49605 -1.39953 -1.54482 -1.4002 -1.54381 -1.39872 -1.49605 -1.39953 -1.54381 -1.49605 -1.68915 -1.54482 1.03911 1.11658 1.13753 1.20461 1.10599 1.27123 1.11658 1.20461 0.940885 1.10599 1.03911 1.11658 -1.03911 -1.11658 -1.13753 -1.20461 -1.10599 -1.27123 -1.11658 -1.20461 -0.940885 -1.10599 -1.03911 -1.11658 0.225872 0.230605 0.115159 0.0138294 0.225872 0.331848 0.230605 0.447358 0.225872 0.115159 0.331848 0.216403 -0.225872 -0.230605 -0.115159 -0.0138294 -0.225872 -0.331848 -0.230605 -0.447358 -0.225872 -0.115159 -0.331848 -0.216403 3.73894 3.75999 3.8329 3.96903 3.73894 3.62393 3.75999 3.55095 3.73894 3.8329 3.62393 3.69687 -3.73894 -3.75999 -3.8329 -3.96903 -3.73894 -3.62393 -3.75999 -3.55095 -3.73894 -3.8329 -3.62393 -3.69687 2.01942 2.09574 1.95117 2.03559 2.01139 2.15614 2.01942 2.09574 2.01139 2.01942 1.86664 1.95117 -2.01942 -2.09574 -1.95117 -2.03559 -2.01139 -2.15614 -2.01942 -2.09574 -2.01139 -2.01942 -1.86664 -1.95117 1.69532 1.73183 1.62129 1.62064 1.69532 1.73287 1.73183 1.84321 1.69532 1.62129 1.73287 1.6223 -1.69532 -1.73183 -1.62129 -1.62064 -1.69532 -1.73287 -1.73183 -1.84321 -1.69532 -1.62129 -1.73287 -1.6223 2.05026 1.98461 1.96788 1.91049 1.98461 1.99307 1.91049 1.85311 2.05026 2.13276 1.98461 1.99307 -2.05026 -1.98461 -1.96788 -1.91049 -1.98461 -1.99307 -1.91049 -1.85311 -2.05026 -2.13276 -1.98461 -1.99307 -3.08781 -3.11803 -3.31315 -3.24585 -3.02043 -3.17849 -3.11803 -3.24585 -2.86246 -3.02043 -3.08781 -3.11803 3.08781 3.11803 3.31315 3.24585 3.02043 3.17849 3.11803 3.24585 2.86246 3.02043 3.08781 3.11803 -3.11573 -3.24721 -3.01698 -3.18121 -3.11573 -3.083 -3.24721 -3.31315 -3.11573 -3.01698 -3.083 -2.85284 3.11573 3.24721 3.01698 3.18121 3.11573 3.083 3.24721 3.31315 3.11573 3.01698 3.083 2.85284 0.11737 0.193669 -0.0176013 -6.14531e-12 0.176027 0.38723 0.11737 0.193669 0.176027 0.11737 -0.0351882 -0.0176013 -0.11737 -0.193669 0.0176013 6.14531e-12 -0.176027 -0.38723 -0.11737 -0.193669 -0.176027 -0.11737 0.0351882 0.0176013 -2.33943 -2.40007 -2.52249 -2.52196 -2.40007 -2.33883 -2.52196 -2.5216 -2.33943 -2.15614 -2.40007 -2.33883 2.33943 2.40007 2.52249 2.52196 2.40007 2.33883 2.52196 2.5216 2.33943 2.15614 2.40007 2.33883 -0.517043 -0.473098 -0.39192 -0.388496 -0.473098 -0.513725 -0.388496 -0.384941 -0.517043 -0.642359 -0.473098 -0.513725 0.517043 0.473098 0.39192 0.388496 0.473098 0.513725 0.388496 0.384941 0.517043 0.642359 0.473098 0.513725 -0.736894 -0.828372 -0.708133 -0.862407 -0.736894 -0.674176 -0.828372 -0.794238 -0.736894 -0.708133 -0.674176 -0.55396 0.736894 0.828372 0.708133 0.862407 0.736894 0.674176 0.828372 0.794238 0.736894 0.708133 0.674176 0.55396 1.9501 1.79759 2.0395 2.0079 2.10263 1.9501 2.16049 2.0395 2.16049 2.0395 2.21828 2.0079 -1.9501 -1.79759 -2.0395 -2.0079 -2.10263 -1.9501 -2.16049 -2.0395 -2.16049 -2.0395 -2.21828 -2.0079 -0.917869 -0.828372 -0.945532 -0.794238 -0.917869 -0.979696 -0.828372 -0.862407 -0.917869 -0.945532 -0.979696 -1.09695 0.917869 0.828372 0.945532 0.794238 0.917869 0.979696 0.828372 0.862407 0.917869 0.945532 0.979696 1.09695 -2.00568 -1.92601 -2.11369 -2.06227 -2.00568 -1.97734 -1.92601 -1.78974 -2.00568 -2.11369 -1.97734 -2.16499 2.00568 1.92601 2.11369 2.06227 2.00568 1.97734 1.92601 1.78974 2.00568 2.11369 1.97734 2.16499 2.14463 2.22903 2.16559 2.35546 2.14463 2.03926 2.22903 2.10263 2.14463 2.16559 2.03926 1.97583 -2.14463 -2.22903 -2.16559 -2.35546 -2.14463 -2.03926 -2.22903 -2.10263 -2.14463 -2.16559 -2.03926 -1.97583 -1.3 -1.38309 -1.50253 -1.5259 -1.32337 -1.54921 -1.38309 -1.5259 -1.09754 -1.32337 -1.3 -1.38309 1.3 1.38309 1.50253 1.5259 1.32337 1.54921 1.38309 1.5259 1.09754 1.32337 1.3 1.38309 2.77869 2.66043 2.75744 2.49966 2.77869 2.9182 2.66043 2.82116 2.77869 2.75744 2.9182 3.01525 -2.77869 -2.66043 -2.75744 -2.49966 -2.77869 -2.9182 -2.66043 -2.82116 -2.77869 -2.75744 -2.9182 -3.01525 1.02168 1.09776 1.09554 1.17287 1.0987 1.25003 1.09776 1.17287 0.947662 1.0987 1.02168 1.09776 -1.02168 -1.09776 -1.09554 -1.17287 -1.0987 -1.25003 -1.09776 -1.17287 -0.947662 -1.0987 -1.02168 -1.09776 -0.886722 -0.827564 -0.857139 -0.70695 -0.975571 -0.94786 -0.886722 -0.827564 -0.975571 -0.886722 -1.00453 -0.857139 0.886722 0.827564 0.857139 0.70695 0.975571 0.94786 0.886722 0.827564 0.975571 0.886722 1.00453 0.857139 -0.122001 -0.0668766 0 0 -0.092908 0 -0.0668766 0 -0.216993 -0.092908 -0.122001 -0.0668766 0.122001 0.0668766 0 0 0.092908 0 0.0668766 0 0.216993 0.092908 0.122001 0.0668766 0.0951327 0.0686776 0 0 0.0686776 0.123446 0 0 0.0951327 0.219152 0.0686776 0.123446 -0.0951327 -0.0686776 0 0 -0.0686776 -0.123446 0 0 -0.0951327 -0.219152 -0.0686776 -0.123446 2.77989 2.6622 2.91886 2.82241 2.75863 2.50194 2.77989 2.6622 2.75863 2.77989 3.01532 2.91886 -2.77989 -2.6622 -