# vtk DataFile Version 3.0
#This file was generated by the deal.II library on 2023/6/7 at 20:16:50
ASCII
DATASET UNSTRUCTURED_GRID

POINTS 10400 double
0.458164 -0.675688 0
0.557307 -0.651844 0
0.440118 -0.575456 0
0.532594 -0.547409 0
0.47621 -0.775919 0
0.58202 -0.75628 0
0.458164 -0.675688 0
0.557307 -0.651844 0
0.3704 -0.795558 0
0.47621 -0.775919 0
0.359021 -0.699531 0
0.458164 -0.675688 0
0.359021 -0.699531 0
0.458164 -0.675688 0
0.347641 -0.603503 0
0.440118 -0.575456 0
2.90479 2.25497 0
2.72342 2.25346 0
2.88506 2.09682 0
2.73173 2.06945 0
2.92452 2.41312 0
2.71512 2.43746 0
2.90479 2.25497 0
2.72342 2.25346 0
3.13393 2.38879 0
2.92452 2.41312 0
3.08615 2.25649 0
2.90479 2.25497 0
3.08615 2.25649 0
2.90479 2.25497 0
3.03838 2.12419 0
2.88506 2.09682 0
3.08576 -4.72787 0
3.35327 -4.72335 0
3.11597 -4.45573 0
3.37321 -4.44669 0
3.05556 -5 0
3.33333 -5 0
3.08576 -4.72787 0
3.35327 -4.72335 0
2.77778 -5 0
3.05556 -5 0
2.81825 -4.73239 0
3.08576 -4.72787 0
2.81825 -4.73239 0
3.08576 -4.72787 0
2.85873 -4.46477 0
3.11597 -4.45573 0
4.66758 3.147 0
4.69612 3.39881 0
4.33516 3.23845 0
4.39224 3.46428 0
5 3.05556 0
5 3.33333 0
4.66758 3.147 0
4.69612 3.39881 0
5 2.77778 0
5 3.05556 0
4.63905 2.8952 0
4.66758 3.147 0
4.63905 2.8952 0
4.66758 3.147 0
4.27809 3.01261 0
4.33516 3.23845 0
-4.74561 -0.832316 0
-4.49122 -0.831298 0
-4.73833 -0.564619 0
-4.47666 -0.573682 0
-4.75289 -1.10001 0
-4.50578 -1.08891 0
-4.74561 -0.832316 0
-4.49122 -0.831298 0
-5 -1.11111 0
-4.75289 -1.10001 0
-5 -0.833333 0
-4.74561 -0.832316 0
-5 -0.833333 0
-4.74561 -0.832316 0
-5 -0.555556 0
-4.73833 -0.564619 0
4.75224 0.769068 0
4.50448 0.704803 0
4.75438 0.49823 0
4.50876 0.440904 0
4.7501 1.03991 0
4.50021 0.968702 0
4.75224 0.769068 0
4.50448 0.704803 0
5 1.11111 0
4.7501 1.03991 0
5 0.833333 0
4.75224 0.769068 0
5 0.833333 0
4.75224 0.769068 0
5 0.555556 0
4.75438 0.49823 0
0.299166 -0.394653 0
0.373714 -0.430552 0
0.334342 -0.326643 0
0.424414 -0.383801 0
0.263991 -0.462662 0
0.323014 -0.477303 0
0.299166 -0.394653 0
0.373714 -0.430552 0
0.204967 -0.448022 0
0.263991 -0.462662 0
0.224618 -0.358754 0
0.299166 -0.394653 0
0.224618 -0.358754 0
0.299166 -0.394653 0
0.244269 -0.269486 0
0.334342 -0.326643 0
1.10352 3.14047 0
0.86638 3.09631 0
1.14657 2.89737 0
0.918955 2.87791 0
1.06048 3.38356 0
0.813805 3.31471 0
1.10352 3.14047 0
0.86638 3.09631 0
1.30715 3.45242 0
1.06048 3.38356 0
1.34067 3.18463 0
1.10352 3.14047 0
1.34067 3.18463 0
1.10352 3.14047 0
1.37418 2.91684 0
1.14657 2.89737 0
2.55669 3.4866 0
2.79659 3.46494 0
2.56438 3.69835 0
2.80728 3.67806 0
2.54901 3.27485 0
2.7859 3.25182 0
2.55669 3.4866 0
2.79659 3.46494 0
2.31212 3.29789 0
2.54901 3.27485 0
2.3168 3.50827 0
2.55669 3.4866 0
2.3168 3.50827 0
2.55669 3.4866 0
2.32148 3.71864 0
2.56438 3.69835 0
-3.9599 4.42473 0
-3.69755 4.39514 0
-3.92439 4.71237 0
-3.65433 4.69757 0
-3.92439 4.71237 0
-3.65433 4.69757 0
-3.88889 5 0
-3.61111 5 0
-3.65433 4.69757 0
-3.38426 4.68278 0
-3.61111 5 0
-3.33333 5 0
-3.69755 4.39514 0
-3.43519 4.36556 0
-3.65433 4.69757 0
-3.38426 4.68278 0
3.60536 4.28746 0
3.61046 4.52281 0
3.33451 4.30568 0
3.33728 4.53514 0
3.8762 4.26925 0
3.88364 4.51049 0
3.60536 4.28746 0
3.61046 4.52281 0
3.86877 4.02801 0
3.8762 4.26925 0
3.60026 4.05211 0
3.60536 4.28746 0
3.60026 4.05211 0
3.60536 4.28746 0
3.33175 4.07622 0
3.33451 4.30568 0
-2.24766 0.375973 0
-2.08071 0.405692 0
-2.25864 0.548527 0
-2.07725 0.601623 0
-2.23668 0.203419 0
-2.08418 0.20976 0
-2.24766 0.375973 0
-2.08071 0.405692 0
-2.38917 0.197078 0
-2.23668 0.203419 0
-2.41461 0.346254 0
-2.24766 0.375973 0
-2.41461 0.346254 0
-2.24766 0.375973 0
-2.44004 0.495431 0
-2.25864 0.548527 0
3.27397 -2.85209 0
3.17356 -3.10803 0
3.49341 -2.96577 0
3.38424 -3.26733 0
3.05454 -2.7384 0
2.96288 -2.94873 0
3.27397 -2.85209 0
3.17356 -3.10803 0
3.14621 -2.52807 0
3.05454 -2.7384 0
3.37439 -2.59614 0
3.27397 -2.85209 0
3.37439 -2.59614 0
3.27397 -2.85209 0
3.60257 -2.66421 0
3.49341 -2.96577 0
-2.84062 -3.27858 0
-3.10342 -3.17371 0
-2.97023 -3.50477 0
-3.28091 -3.39786 0
-2.71101 -3.05239 0
-2.92593 -2.94957 0
-2.84062 -3.27858 0
-3.10342 -3.17371 0
-2.49609 -3.15521 0
-2.71101 -3.05239 0
-2.57782 -3.38344 0
-2.84062 -3.27858 0
-2.57782 -3.38344 0
-2.84062 -3.27858 0
-2.65955 -3.61167 0
-2.97023 -3.50477 0
-2.63417 2.52951 0
-2.40829 2.52922 0
-2.63873 2.82363 0
-2.45401 2.76442 0
-2.40829 2.52922 0
-2.18241 2.52893 0
-2.45401 2.76442 0
-2.2693 2.70521 0
-2.36257 2.29403 0
-2.09553 2.35266 0
-2.40829 2.52922 0
-2.18241 2.52893 0
-2.6296 2.2354 0
-2.36257 2.29403 0
-2.63417 2.52951 0
-2.40829 2.52922 0
-2.73686 2.99907 0
-2.95763 2.98527 0
-2.63873 2.82363 0
-2.92215 2.77147 0
-2.95763 2.98527 0
-3.17841 2.97147 0
-2.92215 2.77147 0
-3.20556 2.71931 0
-2.99312 3.19907 0
-3.15125 3.22363 0
-2.95763 2.98527 0
-3.17841 2.97147 0
-2.83498 3.17451 0
-2.99312 3.19907 0
-2.73686 2.99907 0
-2.95763 2.98527 0
2.68449 -2.57835 0
2.51293 -2.5258 0
2.61913 -2.7648 0
2.49403 -2.70839 0
2.51293 -2.5258 0
2.34137 -2.47324 0
2.49403 -2.70839 0
2.36893 -2.65198 0
2.53183 -2.34321 0
2.31381 -2.2945 0
2.51293 -2.5258 0
2.34137 -2.47324 0
2.74986 -2.39191 0
2.53183 -2.34321 0
2.68449 -2.57835 0
2.51293 -2.5258 0
-2.42884 -2.49426 0
-2.61942 -2.45951 0
-2.50371 -2.67145 0
-2.69485 -2.58702 0
-2.35397 -2.31706 0
-2.54399 -2.332 0
-2.42884 -2.49426 0
-2.61942 -2.45951 0
-2.16396 -2.30212 0
-2.35397 -2.31706 0
-2.23826 -2.529 0
-2.42884 -2.49426 0
-2.23826 -2.529 0
-2.42884 -2.49426 0
-2.31257 -2.75588 0
-2.50371 -2.67145 0
2.50889 2.65255 0
2.73342 2.63674 0
2.52316 2.85721 0
2.75172 2.83602 0
2.49462 2.44789 0
2.71512 2.43746 0
2.50889 2.65255 0
2.73342 2.63674 0
2.27413 2.45832 0
2.49462 2.44789 0
2.28437 2.66837 0
2.50889 2.65255 0
2.28437 2.66837 0
2.50889 2.65255 0
2.2946 2.87841 0
2.52316 2.85721 0
3.00664 3.01598 0
2.76881 3.04392 0
2.98488 2.807 0
2.75172 2.83602 0
3.02839 3.22497 0
2.7859 3.25182 0
3.00664 3.01598 0
2.76881 3.04392 0
3.27089 3.19811 0
3.02839 3.22497 0
3.24446 2.98804 0
3.00664 3.01598 0
3.24446 2.98804 0
3.00664 3.01598 0
3.21804 2.77798 0
2.98488 2.807 0
-0.523896 0.448747 0
-0.396925 0.382064 0
-0.458025 0.519504 0
-0.35838 0.473144 0
-0.458025 0.519504 0
-0.35838 0.473144 0
-0.392155 0.59026 0
-0.319836 0.564225 0
-0.35838 0.473144 0
-0.258735 0.426785 0
-0.319836 0.564225 0
-0.247516 0.538189 0
-0.396925 0.382064 0
-0.269954 0.315381 0
-0.35838 0.473144 0
-0.258735 0.426785 0
-2.11189 -3.50741 0
-2.16881 -3.70912 0
-1.90375 -3.55736 0
-1.99539 -3.7351 0
-2.05497 -3.30569 0
-2.11189 -3.50741 0
-1.8121 -3.37963 0
-1.90375 -3.55736 0
-1.8121 -3.37963 0
-1.90375 -3.55736 0
-1.56923 -3.45357 0
-1.69561 -3.60732 0
-1.90375 -3.55736 0
-1.99539 -3.7351 0
-1.69561 -3.60732 0
-1.82198 -3.76107 0
-3.99104 1.37485 0
-3.95135 1.09191 0
-3.7744 1.44005 0
-3.76708 1.19383 0
-4.03072 1.65779 0
-3.99104 1.37485 0
-3.78173 1.68627 0
-3.7744 1.44005 0
-3.78173 1.68627 0
-3.7744 1.44005 0
-3.53274 1.71475 0
-3.55777 1.50525 0
-3.7744 1.44005 0
-3.76708 1.19383 0
-3.55777 1.50525 0
-3.5828 1.29575 0
1.62915 3.5874 0
1.84998 3.55248 0
1.68284 3.77561 0
1.8562 3.759 0
1.57546 3.39919 0
1.84376 3.34596 0
1.62915 3.5874 0
1.84998 3.55248 0
1.30715 3.45242 0
1.57546 3.39919 0
1.40832 3.62232 0
1.62915 3.5874 0
1.40832 3.62232 0
1.62915 3.5874 0
1.50949 3.79222 0
1.68284 3.77561 0
-1.97888 -3.11399 0
-1.77975 -3.1851 0
-1.90279 -2.92229 0
-1.74739 -2.99057 0
-1.77975 -3.1851 0
-1.58061 -3.25621 0
-1.74739 -2.99057 0
-1.59198 -3.05885 0
-1.8121 -3.37963 0
-1.56923 -3.45357 0
-1.77975 -3.1851 0
-1.58061 -3.25621 0
-2.05497 -3.30569 0
-1.8121 -3.37963 0
-1.97888 -3.11399 0
-1.77975 -3.1851 0
-2.02255 -2.63242 0
-2.10768 -2.83908 0
-1.80684 -2.73584 0
-1.90279 -2.92229 0
-2.23826 -2.529 0
-2.31257 -2.75588 0
-2.02255 -2.63242 0
-2.10768 -2.83908 0
-2.16396 -2.30212 0
-2.23826 -2.529 0
-1.93743 -2.42576 0
-2.02255 -2.63242 0
-1.93743 -2.42576 0
-2.02255 -2.63242 0
-1.7109 -2.5494 0
-1.80684 -2.73584 0
-4.73288 -2.91534 0
-4.45137 -2.80575 0
-5 -2.77778 0
-4.67076 -2.63426 0
-4.45137 -2.80575 0
-4.16987 -2.69615 0
-4.67076 -2.63426 0
-4.34153 -2.49074 0
-4.23198 -2.97723 0
-3.9982 -2.90156 0
-4.45137 -2.80575 0
-4.16987 -2.69615 0
-4.46575 -3.0529 0
-4.23198 -2.97723 0
-4.73288 -2.91534 0
-4.45137 -2.80575 0
1.59033 3.15737 0
1.60521 2.91554 0
1.84 3.13011 0
1.83625 2.91425 0
1.34067 3.18463 0
1.37418 2.91684 0
1.59033 3.15737 0
1.60521 2.91554 0
1.30715 3.45242 0
1.34067 3.18463 0
1.57546 3.39919 0
1.59033 3.15737 0
1.57546 3.39919 0
1.59033 3.15737 0
1.84376 3.34596 0
1.84 3.13011 0
2.06105 2.6866 0
2.06543 2.89633 0
1.83773 2.70483 0
1.83625 2.91425 0
2.28437 2.66837 0
2.2946 2.87841 0
2.06105 2.6866 0
2.06543 2.89633 0
2.27413 2.45832 0
2.28437 2.66837 0
2.05667 2.47686 0
2.06105 2.6866 0
2.05667 2.47686 0
2.06105 2.6866 0
1.83921 2.4954 0
1.83773 2.70483 0
-2.99096 1.64768 0
-2.8836 1.83082 0
-3.18214 1.7734 0
-3.04875 1.95716 0
-3.09831 1.46454 0
-2.99096 1.64768 0
-3.31553 1.58964 0
-3.18214 1.7734 0
-3.31553 1.58964 0
-3.18214 1.7734 0
-3.53274 1.71475 0
-3.37332 1.89913 0
-3.18214 1.7734 0
-3.04875 1.95716 0
-3.37332 1.89913 0
-3.21391 2.0835 0
2.80763 -2.18581 0
2.86541 -1.97971 0
2.60698 -2.13993 0
2.68213 -1.93666 0
2.74986 -2.39191 0
2.80763 -2.18581 0
2.53183 -2.34321 0
2.60698 -2.13993 0
2.53183 -2.34321 0
2.60698 -2.13993 0
2.31381 -2.2945 0
2.40633 -2.09405 0
2.60698 -2.13993 0
2.68213 -1.93666 0
2.40633 -2.09405 0
2.49884 -1.89361 0
0.517594 -4.00143 0
0.396407 -4.21393 0
0.710453 -4.19633 0
0.538171 -4.41292 0
0.324735 -3.80653 0
0.254643 -4.01494 0
0.517594 -4.00143 0
0.396407 -4.21393 0
0.394826 -3.59813 0
0.324735 -3.80653 0
0.638781 -3.78894 0
0.517594 -4.00143 0
0.638781 -3.78894 0
0.517594 -4.00143 0
0.882736 -3.97975 0
0.710453 -4.19633 0
-1.59906 2.32366 0
-1.53556 2.49113 0
-1.77875 2.42345 0
-1.67845 2.59246 0
-1.66257 2.1562 0
-1.59906 2.32366 0
-1.87905 2.25443 0
-1.77875 2.42345 0
-1.87905 2.25443 0
-1.77875 2.42345 0
-2.09553 2.35266 0
-1.95844 2.52323 0
-1.77875 2.42345 0
[...]
POINT_DATA 10400
SCALARS solution double 1
LOOKUP_TABLE default
-0.636486 -0.617679 -0.532897 -0.511118 -0.739909 -0.724425 -0.636486 -0.617679 -0.755748 -0.739909 -0.655663 -0.636486 -0.655663 -0.636486 -0.555031 -0.532897 2.25118 2.24914 2.09291 2.06507 2.40947 2.43326 2.25118 2.24914 2.38564 2.40947 2.25317 2.25118 2.25317 2.25118 2.12071 2.09291 -4.72745 -4.72299 -4.45492 -4.446 -5 -5 -4.72745 -4.72299 -5 -5 -4.73191 -4.72745 -4.73191 -4.72745 -4.46385 -4.45492 3.14661 3.39849 3.23769 3.46366 3.05556 3.33333 3.14661 3.39849 2.77778 3.05556 2.89474 3.14661 2.89474 3.14661 3.01171 3.23769 -0.832117 -0.830895 -0.564476 -0.573385 -1.09977 -1.08843 -0.832117 -0.830895 -1.11111 -1.09977 -0.833333 -0.832117 -0.833333 -0.832117 -0.555556 -0.564476 0.768883 0.704453 0.498105 0.440678 1.03967 0.968241 0.768883 0.704453 1.11111 1.03967 0.833333 0.768883 0.833333 0.768883 0.555556 0.498105 -0.331581 -0.378904 -0.268553 -0.338269 -0.398527 -0.42103 -0.331581 -0.378904 -0.375381 -0.398527 -0.279836 -0.331581 -0.279836 -0.331581 -0.18959 -0.268553 3.13355 3.08873 2.88948 2.86936 3.3776 3.30807 3.13355 3.08873 3.44712 3.3776 3.17839 3.13355 3.17839 3.13355 2.90965 2.88948 3.48358 3.46227 3.69575 3.67575 3.27143 3.2488 3.48358 3.46227 3.29405 3.27143 3.50489 3.48358 3.50489 3.48358 3.71574 3.69575 4.42429 4.39455 4.71214 4.69726 4.71214 4.69726 5 5 4.69726 4.68238 5 5 4.39455 4.36479 4.69726 4.68238 4.28671 4.52231 4.30478 4.53454 4.26864 4.51008 4.28671 4.52231 4.02721 4.26864 4.05112 4.28671 4.05112 4.28671 4.07504 4.30478 0.373535 0.402575 0.545165 0.597253 0.202021 0.20807 0.373535 0.402575 0.195917 0.202021 0.344344 0.373535 0.344344 0.373535 0.492856 0.545165 -2.84955 -3.10554 -2.96371 -3.26534 -2.73533 -2.94568 -2.84955 -3.10554 -2.52505 -2.73533 -2.59364 -2.84955 -2.59364 -2.84955 -2.66217 -2.96371 -3.27573 -3.17119 -3.50244 -3.39585 -3.04896 -2.94645 -3.27573 -3.17119 -3.1515 -3.04896 -3.3803 -3.27573 -3.3803 -3.27573 -3.60907 -3.50244 2.52516 2.52421 2.81967 2.7599 2.52421 2.5232 2.7599 2.70007 2.28856 2.34629 2.52421 2.5232 2.23076 2.28856 2.52516 2.52421 2.99558 2.98222 2.81967 2.76811 2.98222 2.96883 2.76811 2.71651 3.19634 3.2212 2.98222 2.96883 3.17147 3.19634 2.99558 2.98222 -2.57424 -2.52114 -2.76074 -2.70393 -2.52114 -2.46798 -2.70393 -2.64708 -2.33841 -2.28891 -2.52114 -2.46798 -2.3878 -2.33841 -2.57424 -2.52114 -2.48932 -2.45511 -2.66698 -2.58296 -2.31166 -2.32724 -2.48932 -2.45511 -2.296 -2.31166 -2.52351 -2.48932 -2.52351 -2.48932 -2.75101 -2.66698 2.64802 2.63279 2.85302 2.83235 2.44305 2.43326 2.64802 2.63279 2.45278 2.44305 2.66321 2.64802 2.66321 2.64802 2.87367 2.85302 3.01307 3.04056 2.80382 2.83235 3.22234 3.2488 3.01307 3.04056 3.19586 3.22234 2.98555 3.01307 2.98555 3.01307 2.77525 2.80382 0.412137 0.333213 0.477261 0.420431 0.477261 0.420431 0.54423 0.511453 0.420431 0.359203 0.511453 0.477828 0.333213 0.243808 0.420431 0.359203 -3.50372 -3.70601 -3.55346 -3.73181 -3.3014 -3.50372 -3.37506 -3.55346 -3.37506 -3.55346 -3.44877 -3.60323 -3.55346 -3.73181 -3.60323 -3.75762 1.37356 1.09075 1.43838 1.19233 1.65644 1.37356 1.6845 1.43838 1.6845 1.43838 1.71249 1.50315 1.43838 1.19233 1.50315 1.29385 3.5831 3.54843 3.77198 3.75555 3.39418 3.34131 3.5831 3.54843 3.44712 3.39418 3.6178 3.5831 3.6178 3.5831 3.78842 3.77198 -3.10905 -3.1799 -2.91665 -2.98471 -3.1799 -3.25079 -2.98471 -3.05281 -3.37506 -3.44877 -3.1799 -3.25079 -3.3014 -3.37506 -3.10905 -3.1799 -2.62643 -2.83381 -2.72941 -2.91665 -2.52351 -2.75101 -2.62643 -2.83381 -2.296 -2.52351 -2.419 -2.62643 -2.419 -2.62643 -2.54209 -2.72941 -2.91501 -2.80504 -2.77778 -2.63383 -2.80504 -2.69503 -2.63383 -2.48984 -2.97627 -2.90025 -2.80504 -2.69503 -3.05226 -2.97627 -2.91501 -2.80504 3.15159 2.909 3.12483 2.90836 3.17839 2.90965 3.15159 2.909 3.44712 3.17839 3.39418 3.15159 3.39418 3.15159 3.34131 3.12483 2.68079 2.89102 2.69835 2.90836 2.66321 2.87367 2.68079 2.89102 2.45278 2.66321 2.4706 2.68079 2.4706 2.68079 2.48837 2.69835 1.64414 1.82689 1.77032 1.95369 1.46143 1.64414 1.58698 1.77032 1.58698 1.77032 1.71249 1.89647 1.77032 1.95369 1.89647 2.08046 -2.18174 -1.97576 -2.13522 -1.93212 -2.3878 -2.18174 -2.33841 -2.13522 -2.33841 -2.13522 -2.28891 -2.0886 -2.13522 -1.93212 -2.0886 -1.88841 -3.99757 -4.21089 -4.19333 -4.4107 -3.80176 -4.01104 -3.99757 -4.21089 -3.59245 -3.80176 -3.78426 -3.99757 -3.78426 -3.99757 -3.97602 -4.19333 2.31514 2.48289 2.41598 2.5851 2.14748 2.31514 2.24698 2.41598 2.24698 2.41598 2.34629 2.51669 2.41598 2.5851 2.51669 2.68723 1.64572 1.60778 1.80497 1.74597 1.48657 1.46962 1.64572 1.60778 1.50344 1.48657 1.68357 1.64572 1.68357 1.64572 1.86387 1.80497 -2.3363 -2.22648 -2.13868 -2.04154 -2.22648 -2.11672 -2.04154 -1.94446 -2.4113 -2.28891 -2.22648 -2.11672 -2.53376 -2.4113 -2.3363 -2.22648 -0.00856502 -0.060692 0.102606 0.059216 0.102606 0.059216 0.216488 0.180826 0.059216 0.0141535 0.180826 0.143652 -0.060692 -0.114238 0.059216 0.0141535 2.79512 2.95939 2.84617 3.0253 2.84617 3.0253 2.8972 3.09116 3.0253 3.20442 3.09116 3.28509 2.95939 3.12369 3.0253 3.20442 -3.04566 -2.80857 -3.14826 -2.93074 -3.2828 -3.04566 -3.3658 -3.14826 -3.3658 -3.14826 -3.44877 -3.25079 -3.14826 -2.93074 -3.25079 -3.05281 1.72718 1.63969 1.55227 1.4662 1.63969 1.55215 1.4662 1.3801 1.81321 1.72424 1.63969 1.55215 1.90213 1.81321 1.72718 1.63969 0.412137 0.477261 0.535656 0.593931 0.535656 0.593931 0.659091 0.710115 0.593931 0.653409 0.710115 0.761977 0.477261 0.54423 0.593931 0.653409 -0.378904 -0.456227 -0.338269 -0.425049 -0.456227 -0.532897 -0.425049 -0.511118 -0.4882 -0.555031 -0.456227 -0.532897 -0.42103 -0.4882 -0.378904 -0.456227 0.887946 0.842566 1.01444 0.960838 0.842566 0.797131 0.960838 0.90721 0.724325 0.686473 0.842566 0.797131 0.761977 0.724325 0.887946 0.842566 -0.752846 -0.755748 -0.652058 -0.655663 -0.75086 -0.752846 -0.649363 -0.652058 -0.649363 -0.652058 -0.546612 -0.550405 -0.652058 -0.655663 -0.550405 -0.555031 -1.27959 -1.24983 -1.12078 -1.08176 -1.12078 -1.08176 -0.962149 -0.913871 -1.08176 -1.04257 -0.913871 -0.865393 -1.24983 -1.21994 -1.08176 -1.04257 -0.570063 -0.564713 -0.433381 -0.44153 -0.433381 -0.44153 -0.297795 -0.319597 -0.44153 -0.448364 -0.319597 -0.339768 -0.564713 -0.558298 -0.44153 -0.448364 -0.597629 -0.350201 -0.573385 -0.270441 -0.350201 -0.10282 -0.270441 0.0324537 -0.42991 -0.238013 -0.350201 -0.10282 -0.621847 -0.42991 -0.597629 -0.350201 4.50896 4.50302 4.75449 4.75152 4.51492 4.50896 4.75747 4.75449 4.75747 4.75449 5 5 4.75449 4.75152 5 5 1.00486 0.937927 0.783287 0.727085 1.22645 1.1488 1.00486 0.937927 1.30409 1.22645 1.07178 1.00486 1.07178 1.00486 0.839488 0.783287 -3.67772 -3.64441 -3.93338 -3.91113 -3.64441 -3.61111 -3.91113 -3.88889 -3.3777 -3.33333 -3.64441 -3.61111 -3.42208 -3.3777 -3.67772 -3.64441 -0.821046 -0.620943 -0.865393 -0.695409 -0.620943 -0.421099 -0.695409 -0.525657 -0.546235 -0.316224 -0.620943 -0.421099 -0.776504 -0.546235 -0.821046 -0.620943 4.07504 4.30478 4.09298 4.31844 4.09298 4.31844 4.11091 4.3321 4.31844 4.54391 4.3321 4.55328 4.30478 4.53454 4.31844 4.54391 -0.852602 -0.810813 -0.739909 -0.724425 -0.964995 -0.897254 -0.852602 -0.810813 -1.0335 -0.964995 -0.895115 -0.852602 -0.895115 -0.852602 -0.755748 -0.739909 0.388329 0.529571 0.210442 0.426149 0.210442 0.426149 0.0324537 0.322673 0.426149 0.641908 0.322673 0.612944 0.529571 0.670852 0.426149 0.641908 -0.162775 -0.232597 -0.399123 -0.44478 -0.0929033 -0.162775 -0.353434 -0.399123 -0.353434 -0.399123 -0.613972 -0.635507 -0.399123 -0.44478 -0.635507 -0.657026 0.761977 0.887946 0.838434 0.955996 0.838434 0.955996 0.914005 1.02338 0.955996 1.0738 1.02338 1.13281 0.887946 1.01444 0.955996 1.0738 1.12569 1.23688 1.1875 1.30126 1.01444 1.12569 1.0738 1.1875 1.0738 1.1875 1.13281 1.24909 1.1875 1.30126 1.24909 1.36552 2.66627 2.53493 2.81625 2.71651 2.51631 2.35338 2.66627 2.53493 2.6792 2.51631 2.79757 2.66627 2.79757 2.66627 2.91594 2.81625 3.34544 3.56178 3.37862 3.59475 3.12911 3.34544 3.16249 3.37862 3.16249 3.37862 3.19586 3.41178 3.37862 3.59475 3.41178 3.6277 1.04823 1.20249 1.19233 1.29385 0.904178 1.11113 1.04823 1.20249 0.697208 0.904178 0.893935 1.04823 0.893935 1.04823 1.09075 1.19233 -2.53773 -2.63837 -2.38605 -2.47542 -2.63837 -2.73903 -2.47542 -2.5648 -2.8013 -2.91324 -2.63837 -2.73903 -2.68938 -2.8013 -2.53773 -2.63837 2.89558 2.73188 2.87608 2.66579 2.91514 2.79803 2.89558 2.73188 3.03223 2.91514 3.05921 2.89558 3.05921 2.89558 3.08623 2.87608 0.687978 0.842829 0.697208 0.904178 0.842829 0.997657 0.904178 1.11113 0.781479 0.884213 0.842829 0.997657 0.67872 0.781479 0.687978 0.842829 4.00565 3.93148 4.28136 4.19787 3.72999 3.66515 4.00565 3.93148 3.79478 3.72999 4.07977 4.00565 4.07977 4.00565 4.36479 4.28136 4.18259 4.44535 4.17463 4.4449 3.91983 4.18259 3.90436 4.17463 3.90436 4.17463 3.88889 4.16667 4.17463 4.4449 4.16667 4.44444 -4.7471 -5 -4.74553 -5 -4.74868 -5 -4.7471 -5 -4.49736 -4.74868 -4.49419 -4.7471 -4.49419 -4.7471 -4.49106 -4.74553 -4.72274 -4.72248 -4.44548 -4.44496 -5 -5 -4.72274 -4.72248 -5 -5 -4.72299 -4.72274 -4.72299 -4.72274 -4.446 -4.44548 0.783287 0.727085 0.555304 0.513487 0.839488 0.783287 0.597124 0.555304 0.597124 0.555304 0.354778 0.327339 0.555304 0.513487 0.327339 0.299905 -1.01832 -0.825467 -1.04172 -0.834474 -1.04172 -0.834474 -1.0651 -0.843459 -0.834474 -0.627251 -0.843459 -0.621847 -0.825467 -0.632633 -0.834474 -0.627251 0.0115353 0.167367 -0.0890228 0.0575887 0.112026 0.277075 0.0115353 0.167367 -0.0529419 0.112026 -0.144231 0.0115353 -0.144231 0.0115353 -0.235578 -0.0890228 4.72222 4.73096 4.44444 4.46193 4.73096 4.73971 4.46193 4.47941 5 5 4.73096 4.73971 5 5 4.72222 4.73096 -1.14565 -1.34853 -1.1438 -1.34438 -1.34853 -1.55149 -1.34438 -1.54502 -1.35261 -1.55786 -1.34853 -1.55149 -1.14745 -1.35261 -1.14565 -1.34853 0.697208 0.893935 0.542816 0.711779 0.542816 0.711779 0.388329 0.529571 0.711779 0.880809 0.529571 0.670852 0.893935 1.09075 0.711779 0.880809 0.356273 0.320535 0.43472 0.390199 0.393647 0.356273 0.480651 0.43472 0.480651 0.43472 0.565287 0.512111 0.43472 0.390199 0.512111 0.459975 -0.370049 -0.292171 -0.304686 -0.245369 -0.437375 -0.340089 -0.370049 -0.292171 -0.531378 -0.437375 -0.446928 -0.370049 -0.446928 -0.370049 -0.36431 -0.304686 -0.717888 -0.587336 -0.724425 -0.617679 -0.587336 -0.458003 -0.617679 -0.511118 -0.556402 -0.403789 -0.587336 -0.458003 -0.710886 -0.556402 -0.717888 -0.587336 -1.34438 -1.54502 -1.13541 -1.34015 -1.1438 -1.34438 -0.930752 -1.13541 -0.930752 -1.13541 -0.717701 -0.926383 -1.13541 -1.34015 -0.926383 -1.13517 -0.475241 -0.717701 -0.685623 -0.926383 -0.232597 -0.475241 -0.44478 -0.685623 -0.44478 -0.685623 -0.657026 -0.896105 -0.685623 -0.926383 -0.896105 -1.13517 0.710115 0.761977 0.799073 0.838434 0.659091 0.710115 0.760077 0.799073 0.760077 0.799073 0.86095 0.887415 0.799073 0.838434 0.887415 0.914005 4.75504 4.76115 4.51008 4.52231 4.76115 4.76727 4.52231 4.53454 5 5 4.76115 4.76727 5 5 4.75504 4.76115 3.30195 3.396 3.12369 3.20442 3.396 3.48999 3.20442 3.28509 3.5876 3.69492 3.396 3.48999 3.48023 3.5876 3.30195 3.396 4.43483 4.42429 4.71741 4.71214 4.44535 4.43483 4.72267 4.71741 4.72267 4.71741 5 5 4.71741 4.71214 5 5 0.699269 0.64487 0.804353 0.747122 0.64487 0.592405 0.747122 0.691427 0.54032 0.490605 0.64487 0.592405 0.592507 0.54032 0.699269 0.64487 4.18259 4.16694 4.44535 4.43483 4.16694 4.15127 4.43483 4.42429 3.89906 3.87828 4.16694 4.15127 3.91983 3.89906 4.18259 4.16694 -0.843589 -0.728422 -0.820745 -0.70771 -0.867697 -0.75086 -0.843589 -0.728422 -0.983593 -0.867697 -0.957482 -0.843589 -0.957482 -0.843589 -0.932334 -0.820745 -0.843459 -0.621847 -0.837188 -0.597629 -1.0651 -0.843459 -1.07677 -0.837188 -1.07677 -0.837188 -1.08843 -0.830895 -0.837188 -0.597629 -0.830895 -0.573385 0.650783 0.597124 0.397722 0.354778 0.903861 0.839488 0.650783 0.597124 0.968241 0.903861 0.704453 0.650783 0.704453 0.650783 0.440678 0.397722 -0.670893 -0.70771 -0.567725 -0.604562 -0.636398 -0.670893 -0.533984 -0.567725 -0.533984 -0.567725 -0.428218 -0.461388 -0.567725 -0.604562 -0.461388 -0.498913 0.368101 0.528005 0.277075 0.487093 0.528005 0.687978 0.487093 0.697208 0.568869 0.67872 0.528005 0.687978 0.459057 0.568869 0.368101 0.528005 -2.91501 -2.77778 -3.14635 -3.05556 -3.05226 -2.91501 -3.23716 -3.14635 -3.23716 -3.14635 -3.42208 -3.3777 -3.14635 -3.05556 -3.3777 -3.33333 0.390258 0.412137 0.509223 0.535656 0.366148 0.390258 0.481868 0.509223 0.481868 0.509223 0.59866 0.629032 0.509223 0.535656 0.629032 0.659091 1.38831 1.11736 1.38773 1.12359 1.38889 1.11111 1.38831 1.11736 1.66667 1.38889 1.65928 1.38831 1.65928 1.38831 1.65188 1.38773 -1.12495 -1.13877 -1.39728 -1.40567 -1.11111 -1.12495 -1.38889 -1.39728 -1.38889 -1.39728 -1.66667 -1.66963 -1.39728 -1.40567 -1.66963 -1.67259 -0.135759 -0.0389731 -0.291186 -0.107216 -0.232597 -0.135759 -0.475241 -0.291186 -0.475241 -0.291186 -0.717701 -0.446494 -0.291186 -0.107216 -0.446494 -0.175418 0.167367 0.355053 0.0575887 0.222925 0.355053 0.542816 0.222925 0.388329 0.487093 0.697208 0.355053 0.542816 0.277075 0.487093 0.167367 0.355053 4.19417 4.46193 4.22169 4.47941 4.16667 4.44444 4.19417 4.46193 3.88889 4.16667 3.92642 4.19417 3.92642 4.19417 3.96396 4.22169 4.11553 4.07977 4.39455 4.36479 3.83654 3.79478 4.11553 4.07977 3.87828 3.83654 4.15127 4.11553 4.15127 4.11553 4.42429 4.39455 -0.268347 -0.338269 -0.363416 -0.425049 -0.19912 -0.268347 -0.301158 -0.363416 -0.301158 -0.363416 -0.403789 -0.458003 -0.363416 -0.425049 -0.458003 -0.511118 3.07041 3.29157 3.12911 3.34544 3.29157 3.51272 3.34544 3.56178 3.23769 3.46366 3.29157 3.51272 3.01171 3.23769 3.07041 3.29157 3.96396 3.99558 3.71381 3.75415 3.71381 3.75415 3.46366 3.51272 3.75415 3.79449 3.51272 3.56178 3.99558 4.02721 3.75415 3.79449 3.96396 4.22169 3.99558 4.24516 3.99558 4.24516 4.02721 4.26864 4.24516 4.49475 4.26864 4.51008 4.22169 4.47941 4.24516 4.49475 -0.0172219 0.0269122 0.189877 0.229208 -0.224361 -0.175418 -0.0172219 0.0269122 -0.273223 -0.224361 -0.0613026 -0.0172219 -0.0613026 -0.0172219 0.15057 0.189877 -4.10265 -4.32387 -4.07515 -4.30139 -4.32387 -4.54509 -4.30139 -4.52765 -4.34633 -4.56252 -4.32387 -4.54509 -4.13015 -4.34633 -4.10265 -4.32387 3.92642 3.96396 3.66245 3.71381 3.88889 3.92642 3.61111 3.66245 3.61111 3.66245 3.33333 3.39849 3.66245 3.71381 3.39849 3.46366 -0.471581 -0.446494 -0.224361 -0.175418 -0.718919 -0.717701 -0.471581 -0.446494 -0.720039 -0.718919 -0.496583 -0.471581 -0.496583 -0.471581 -0.273223 -0.224361 4.17424 4.16762 4.37318 4.37087 4.37318 4.37087 4.57209 4.57411 4.37087 4.36857 4.57411 4.57614 4.16762 4.16102 4.37087 4.36857 0.753071 0.613113 0.756166 0.611867 0.613113 0.474577 0.611867 0.468688 0.613138 0.479079 0.613113 0.474577 0.749052 0.613138 0.753071 0.613113 2.32149 2.15751 2.30243 2.1165 2.34054 2.19854 2.32149 2.15751 2.48258 2.34054 2.48549 2.32149 2.48549 2.32149 2.48837 2.30243 4.74737 4.75504 4.49475 4.51008 5 5 4.74737 4.75504 5 5 4.73971 4.74737 4.73971 4.74737 4.47941 4.49475 4.72267 5 4.72245 5 4.44535 4.72267 4.4449 4.72245 4.4449 4.72245 4.44444 4.72222 4.72245 5 4.72222 5 3.24741 3.03694 3.27771 3.0628 3.27771 3.0628 3.30807 3.08873 3.0628 2.84784 3.08873 2.86936 3.03694 2.8264 3.0628 2.84784 -3.1816 -2.98332 -3.23219 -3.01447 -3.23219 -3.01447 -3.2828 -3.04566 -3.01447 -2.79674 -3.04566 -2.80857 -2.98332 -2.78499 -3.01447 -2.79674 0.00116538 -0.0532394 0.0599357 0.002131 0.0599357 0.002131 0.113306 0.0402646 0.002131 -0.0343844 0.0402646 0 -0.0532394 -0.0996169 0.002131 -0.0343844 1.76268 1.96182 1.62807 1.7855 1.56367 1.76268 1.47073 1.62807 1.47073 1.62807 1.37772 1.49339 1.62807 1.7855 1.49339 1.60909 1.76268 1.82872 1.96182 2.01353 1.82872 1.89463 2.01353 2.06507 1.644 1.72424 1.82872 1.89463 1.56367 1.644 1.76268 1.82872 -0.973218 -0.782877 -1.01832 -0.825467 -0.782877 -0.592552 -0.825467 -0.632633 -0.740274 -0.55247 -0.782877 -0.592552 -0.928087 -0.740274 -0.973218 -0.782877 1.1488 1.0809 0.937927 0.878597 0.937927 0.878597 0.727085 0.676321 0.878597 0.819251 0.676321 0.625551 1.0809 1.01298 0.878597 0.819251 -1.80295 -1.64888 -1.89865 -1.7343 -1.64888 -1.49488 -1.7343 -1.57003 -1.56336 -1.41966 -1.64888 -1.49488 -1.70715 -1.56336 -1.80295 -1.64888 4.73505 4.78562 5 5 4.78562 4.8362 5 5 4.57124 4.67239 4.78562 4.8362 4.47009 4.57124 4.73505 4.78562 0.0572924 0.153157 0.0989883 0.224986 0.0989883 0.224986 0.140823 0.297029 0.224986 0.350878 0.297029 0.453088 0.153157 0.248987 0.224986 0.350878 -2.40019 -2.36847 -2.59263 -2.58266 -2.59263 -2.58266 -2.78499 -2.79674 -2.58266 -2.57279 -2.79674 -2.80857 -2.36847 -2.33687 -2.58266 -2.57279 4.48653 4.50302 4.27148 4.26739 4.47009 4.48653 4.27561 4.27148 4.27561 4.27148 4.0811 4.0564 4.27148 4.26739 4.0564 4.03172 -4.23409 -4.45085 -4.21089 -4.4107 -4.25733 -4.49106 -4.23409 -4.45085 -4.02356 -4.25733 -4.01729 -4.23409 -4.01729 -4.23409 -4.01104 -4.21089 1.47815 1.72346 1.39112 1.62536 1.39112 1.62536 1.30409 1.52726 1.62536 1.85963 1.52726 1.75045 1.72346 1.96878 1.62536 1.85963 1.65418 1.65188 1.38066 1.38773 1.65644 1.65418 1.37356 1.38066 1.37356 1.38066 1.09075 1.10719 1.38066 1.38773 1.10719 1.12359 2.43553 2.40133 2.63101 2.62463 2.63101 2.62463 2.8264 2.84784 2.62463 2.61837 2.84784 2.86936 2.40133 2.36732 2.62463 2.61837 -1.54502 -1.67589 -1.34015 -1.55181 -1.34015 -1.55181 -1.13517 -1.42767 -1.55181 -1.76352 -1.42767 -1.72025 -1.67589 -1.80676 -1.55181 -1.76352 -1.40567 -1.41669 -1.67259 -1.69643 -1.41669 -1.42767 -1.69643 -1.72025 -1.13699 -1.13517 -1.41669 -1.42767 -1.13877 -1.13699 -1.40567 -1.41669 -0.555904 -0.492647 -0.414711 -0.337988 -0.619174 -0.555904 -0.491532 -0.414711 -0.491532 -0.414711 -0.363828 -0.273455 -0.414711 -0.337988 -0.273455 -0.183265 -4.1996 -4.18313 -4.46583 -4.45513 -4.18313 -4.16667 -4.45513 -4.44444 -3.91113 -3.88889 -4.18313 -4.16667 -3.93338 -3.91113 -4.1996 -4.18313 0.700735 0.621427 0.517609 0.444709 0.779959 0.700735 0.590509 0.517609 0.590509 0.517609 0.401183 0.334629 0.517609 0.444709 0.334629 0.26816 -4.72263 -4.44527 -4.72256 -4.44512 -5 -4.72263 -5 -4.72256 -5 -4.72256 -5 -4.72248 -4.72256 -4.44512 -4.72248 -4.44496 -3.59435 -3.78426 -3.80644 -3.97602 -3.38216 -3.59245 -3.59435 -3.78426 -3.172 -3.38216 -3.40453 -3.59435 -3.40453 -3.59435 -3.63692 -3.80644 -4.13656 -3.97153 -4.36061 -4.16835 -3.97153 -3.80644 -4.16835 -3.97602 -3.77474 -3.63692 -3.97153 -3.80644 -3.91251 -3.77474 -4.13656 -3.97153 -0.854857 -0.876365 -1.12495 -1.13877 -0.584773 -0.613972 -0.854857 -0.876365 -0.555556 -0.584773 -0.833333 -0.854857 -0.833333 -0.854857 -1.11111 -1.12495 1.11736 0.850803 1.12359 0.868257 0.850803 0.58426 0.868257 0.612944 0.833333 0.555556 0.850803 0.58426 1.11111 0.833333 1.11736 0.850803 4.50896 4.24293 4.50302 4.26739 4.24293 3.97685 4.26739 4.03172 4.21852 3.92207 4.24293 3.97685 4.51492 4.21852 4.50896 4.24293 -2.1665 -2.05325 -2.09051 -2.0076 -2.24251 -2.09894 -2.1665 -2.05325 -2.38605 -2.24251 -2.27974 -2.1665 -2.27974 -2.1665 -2.17344 -2.09051 0.95566 0.768511 1.01298 0.819251 0.768511 0.5814 0.819251 0.625551 0.717747 0.537236 0.768511 0.5814 0.898301 0.717747 0.95566 0.768511 2.21748 2.27354 2.27849 2.38812 2.27849 2.38812 2.33951 2.50266 2.38812 2.49778 2.50266 2.66579 2.27354 2.32965 2.38812 2.49778 -0.863645 -0.669614 -0.928087 -0.740274 -0.669614 -0.475567 -0.740274 -0.55247 -0.59896 -0.398702 -0.669614 -0.475567 -0.799159 -0.59896 -0.863645 -0.669614 1.6845 1.71249 1.8993 1.90189 1.65644 1.6845 1.89666 1.8993 1.89666 1.8993 2.13692 2.11413 1.8993 1.90189 2.11413 2.09133 4.68238 4.64066 5 5 4.64066 4.59891 5 5 4.28136 4.19787 4.64066 4.59891 4.36479 4.28136 4.68238 4.64066 1.66776 1.58577 1.83218 1.758 1.83218 1.758 1.99676 1.93039 1.758 1.68357 1.93039 1.86387 1.58577 1.50344 1.758 1.68357 0.0585199 0.00647797 0.196966 0.154139 0.196966 0.154139 0.335981 0.302316 0.154139 0.110872 0.302316 0.26816 0.00647797 -0.0459394 0.154139 0.110872 2.94175 2.89023 2.69115 2.70307 3.19235 3.07739 2.94175 2.89023 3.30734 3.19235 2.99327 2.94175 2.99327 2.94175 2.6792 2.69115 -0.0752157 0.0572924 -0.0482483 0.0989883 -0.20789 -0.0752157 -0.195675 -0.0482483 -0.195675 -0.048248