# vtk DataFile Version 3.0
#This file was generated by the deal.II library on 2023/6/7 at 20:20:39
ASCII
DATASET UNSTRUCTURED_GRID

POINTS 44088 double
0.0889527 -0.844463 0
0.0628913 -0.875936 0
0.156272 -0.861369 0
0.171469 -0.941221 0
0.0476946 -0.796084 0
-0.0456865 -0.810651 0
0.0889527 -0.844463 0
0.0628913 -0.875936 0
0.0476946 -0.796084 0
0.0889527 -0.844463 0
0.141076 -0.781518 0
0.156272 -0.861369 0
1.05429 0.0879974 0
1.05425 0.0962991 0
1.04495 0.079693 0
1.03554 0.0879921 0
1.06367 0.088 0
1.07296 0.104606 0
1.05429 0.0879974 0
1.05425 0.0962991 0
1.06367 0.088 0
1.05429 0.0879974 0
1.05437 0.0713939 0
1.04495 0.079693 0
0.960399 -0.00968267 0
0.95899 -0.011668 0
0.962927 -0.0106628 0
0.962636 -0.0156136 0
0.95928 -0.0067172 0
0.955344 -0.00772238 0
0.960399 -0.00968267 0
0.95899 -0.011668 0
0.95928 -0.0067172 0
0.960399 -0.00968267 0
0.963217 -0.00571202 0
0.962927 -0.0106628 0
6.19465e-05 -0.000951802 0
0.00012049 -0.00108181 0
0.000187337 -0.000863638 0
0.000429813 -0.0010355 0
-0.000121987 -0.000909953 0
-0.000188834 -0.00112813 0
6.19465e-05 -0.000951802 0
0.00012049 -0.00108181 0
-0.000121987 -0.000909953 0
6.19465e-05 -0.000951802 0
-5.51403e-05 -0.000691778 0
0.000187337 -0.000863638 0
1.01861 -0.0239338 0
1.01689 -0.0186482 0
1.0176 -0.0287872 0
1.01316 -0.0230694 0
1.02133 -0.024366 0
1.02062 -0.014227 0
1.01861 -0.0239338 0
1.01689 -0.0186482 0
1.02133 -0.024366 0
1.01861 -0.0239338 0
1.02205 -0.034505 0
1.0176 -0.0287872 0
0.813924 0.0964628 0
0.81763 0.101184 0
0.806636 0.0999176 0
0.806761 0.112814 0
0.817505 0.0882874 0
0.828499 0.0895533 0
0.813924 0.0964628 0
0.81763 0.101184 0
0.817505 0.0882874 0
0.813924 0.0964628 0
0.806512 0.0870215 0
0.806636 0.0999176 0
0.294536 -0.0932806 0
0.292626 -0.102623 0
0.302819 -0.0903615 0
0.307283 -0.106127 0
0.288163 -0.0868574 0
0.27797 -0.0991188 0
0.294536 -0.0932806 0
0.292626 -0.102623 0
0.288163 -0.0868574 0
0.294536 -0.0932806 0
0.298356 -0.074596 0
0.302819 -0.0903615 0
-0.000318665 -0.00037224 0
-0.00041838 -0.000323062 0
-0.000270673 -0.000534553 0
-0.000422111 -0.000598508 0
-0.000266942 -0.000259106 0
-0.000414649 -4.76145e-05 0
-0.000318665 -0.00037224 0
-0.00041838 -0.000323062 0
-0.000266942 -0.000259106 0
-0.000318665 -0.00037224 0
-0.000119236 -0.000470597 0
-0.000270673 -0.000534553 0
0.465128 -0.0318236 0
0.460198 -0.0304259 0
0.464487 -0.0366897 0
0.453986 -0.0387605 0
0.4707 -0.0283551 0
0.46641 -0.0220913 0
0.465128 -0.0318236 0
0.460198 -0.0304259 0
0.4707 -0.0283551 0
0.465128 -0.0318236 0
0.474989 -0.0346189 0
0.464487 -0.0366897 0
0.98037 0.0547121 0
0.984206 0.0583644 0
0.97735 0.0568254 0
0.982003 0.0662433 0
0.979553 0.0489465 0
0.986409 0.0504855 0
0.98037 0.0547121 0
0.984206 0.0583644 0
0.979553 0.0489465 0
0.98037 0.0547121 0
0.972698 0.0474076 0
0.97735 0.0568254 0
-0.0151038 -0.0467548 0
-0.0110407 -0.0486746 0
-0.0166684 -0.0413996 0
-0.0101068 -0.0398841 0
-0.0176023 -0.0501901 0
-0.0119747 -0.0574651 0
-0.0151038 -0.0467548 0
-0.0110407 -0.0486746 0
-0.0176023 -0.0501901 0
-0.0151038 -0.0467548 0
-0.0232299 -0.0429151 0
-0.0166684 -0.0413996 0
0.917881 0.0530352 0
0.914181 0.0541883 0
0.919499 0.046851 0
0.913716 0.0429729 0
0.919964 0.0580664 0
0.914645 0.0654037 0
0.917881 0.0530352 0
0.914181 0.0541883 0
0.919964 0.0580664 0
0.917881 0.0530352 0
0.925283 0.050729 0
0.919499 0.046851 0
0.541728 0.0756228 0
0.546779 0.0783224 0
0.538839 0.0783223 0
0.546051 0.0864211 0
0.539567 0.0702236 0
0.547507 0.0702238 0
0.541728 0.0756228 0
0.546779 0.0783224 0
0.539567 0.0702236 0
0.541728 0.0756228 0
0.531627 0.0702235 0
0.538839 0.0783223 0
0.389586 0.213385 0
0.393688 0.223544 0
0.37593 0.213714 0
0.370477 0.234362 0
0.399141 0.202896 0
0.416898 0.212727 0
0.389586 0.213385 0
0.393688 0.223544 0
0.399141 0.202896 0
0.389586 0.213385 0
0.381383 0.193065 0
0.37593 0.213714 0
0.0131814 0.0168462 0
0.0143228 0.0153691 0
0.0136313 0.0182131 0
0.0163922 0.0165789 0
0.0115807 0.0169721 0
0.012291 0.0140969 0
0.0131814 0.0168462 0
0.0143228 0.0153691 0
0.0115807 0.0169721 0
0.0131814 0.0168462 0
0.0108703 0.0198473 0
0.0136313 0.0182131 0
1.09483 0.972424 0
1.11367 0.908698 0
1.13835 1.00069 0
1.21955 0.901512 0
1.03247 1.00788 0
1.00779 0.915883 0
1.09483 0.972424 0
1.11367 0.908698 0
1.03247 1.00788 0
1.09483 0.972424 0
1.05715 1.09988 0
1.13835 1.00069 0
1.36707 -0.281588 0
1.40778 -0.268989 0
1.34761 -0.228925 0
1.40956 -0.151063 0
1.34583 -0.346851 0
1.40601 -0.386914 0
1.36707 -0.281588 0
1.40778 -0.268989 0
1.34583 -0.346851 0
1.36707 -0.281588 0
1.28565 -0.306787 0
1.34761 -0.228925 0
0.310264 -0.0750178 0
0.30927 -0.0853876 0
0.322172 -0.0754397 0
0.314727 -0.0907834 0
0.302819 -0.0903615 0
0.307283 -0.106127 0
0.30927 -0.0853876 0
0.314727 -0.0907834 0
0.298356 -0.074596 0
0.302819 -0.0903615 0
0.310264 -0.0750178 0
0.30927 -0.0853876 0
1.81812 0.482866 0
1.76438 0.577212 0
1.81547 0.371098 0
1.70534 0.448023 0
1.8745 0.500287 0
1.82342 0.706401 0
1.81812 0.482866 0
1.76438 0.577212 0
1.8745 0.500287 0
1.81812 0.482866 0
1.92559 0.294173 0
1.81547 0.371098 0
0.853976 -0.00506074 0
0.853818 -0.000243191 0
0.851241 -0.00756025 0
0.848192 -0.000432668 0
0.856868 -0.00737611 0
0.859445 -6.43828e-05 0
0.853976 -0.00506074 0
0.853818 -0.000243191 0
0.856868 -0.00737611 0
0.853976 -0.00506074 0
0.854291 -0.0146878 0
0.851241 -0.00756025 0
0.966164 -0.00785212 0
0.964988 -0.0104393 0
0.969111 -0.00999222 0
0.965874 -0.0128029 0
0.962927 -0.0106628 0
0.962636 -0.0156136 0
0.964988 -0.0104393 0
0.965874 -0.0128029 0
0.963217 -0.00571202 0
0.962927 -0.0106628 0
0.966164 -0.00785212 0
0.964988 -0.0104393 0
0.48839 0.147464 0
0.479351 0.146615 0
0.496897 0.140325 0
0.487326 0.131489 0
0.488922 0.155451 0
0.471375 0.161741 0
0.48839 0.147464 0
0.479351 0.146615 0
0.488922 0.155451 0
0.48839 0.147464 0
0.506468 0.149162 0
0.496897 0.140325 0
1.19756 0.448536 0
1.19288 0.479156 0
1.16302 0.42775 0
1.1191 0.468203 0
1.23679 0.438703 0
1.26665 0.49011 0
1.19756 0.448536 0
1.19288 0.479156 0
1.23679 0.438703 0
1.19756 0.448536 0
1.20693 0.387296 0
1.16302 0.42775 0
0.294334 0.0660175 0
0.294518 0.0597086 0
0.298011 0.0692881 0
0.302057 0.0599249 0
0.290472 0.0690611 0
0.28698 0.0594709 0
0.294334 0.0660175 0
0.294518 0.0597086 0
0.290472 0.0690611 0
0.294334 0.0660175 0
0.293965 0.0786512 0
0.298011 0.0692881 0
-3.42486 2.14652 0
-3.48764 2.37668 0
-3.641 2.0732 0
-3.9827 2.4602 0
-3.14594 1.98968 0
-2.99259 2.29316 0
-3.42486 2.14652 0
-3.48764 2.37668 0
-3.14594 1.98968 0
-3.42486 2.14652 0
-3.2993 1.6862 0
-3.641 2.0732 0
0.658779 -0.0848601 0
0.666676 -0.0865843 0
0.6532 -0.0779487 0
0.663413 -0.0744857 0
0.656463 -0.0900473 0
0.669939 -0.098683 0
0.658779 -0.0848601 0
0.666676 -0.0865843 0
0.656463 -0.0900473 0
0.658779 -0.0848601 0
0.642986 -0.0814116 0
0.6532 -0.0779487 0
0.443217 -0.0229908 0
0.435492 -0.0232659 0
0.446806 -0.0282442 0
0.444739 -0.0310132 0
0.45094 -0.0227031 0
0.443217 -0.0229908 0
0.452463 -0.0307318 0
0.446806 -0.0282442 0
0.452463 -0.0307318 0
0.446806 -0.0282442 0
0.453986 -0.0387605 0
0.444739 -0.0310132 0
0.54175 0.479778 0
0.510557 0.491547 0
0.55599 0.446896 0
0.507843 0.437553 0
0.558703 0.50089 0
0.51327 0.545541 0
0.54175 0.479778 0
0.510557 0.491547 0
0.558703 0.50089 0
0.54175 0.479778 0
0.604136 0.456239 0
0.55599 0.446896 0
0.90261 -0.102683 0
0.905333 -0.0945933 0
0.894422 -0.104403 0
0.891681 -0.0899435 0
0.908075 -0.109053 0
0.918985 -0.0992431 0
0.90261 -0.102683 0
0.905333 -0.0945933 0
0.908075 -0.109053 0
0.90261 -0.102683 0
0.897164 -0.118863 0
0.894422 -0.104403 0
-1.89476 -1.4632 0
-2.08738 -1.43794 0
-1.86376 -1.62578 0
-2.218 -1.73783 0
-1.73314 -1.32589 0
-1.95677 -1.13806 0
-1.89476 -1.4632 0
-2.08738 -1.43794 0
-1.73314 -1.32589 0
-1.89476 -1.4632 0
-1.50951 -1.51373 0
-1.86376 -1.62578 0
0.757002 -0.0885912 0
0.765942 -0.0881716 0
0.748854 -0.0822342 0
0.758586 -0.075038 0
0.75621 -0.0953678 0
0.773298 -0.101305 0
0.757002 -0.0885912 0
0.765942 -0.0881716 0
0.75621 -0.0953678 0
0.757002 -0.0885912 0
0.739121 -0.0894305 0
0.748854 -0.0822342 0
1.34925 -2.45651 0
1.23567 -2.552 0
1.50654 -2.53066 0
1.43668 -2.79581 0
1.30553 -2.28685 0
1.03466 -2.30819 0
1.34925 -2.45651 0
1.23567 -2.552 0
1.30553 -2.28685 0
1.34925 -2.45651 0
1.57641 -2.26551 0
1.50654 -2.53066 0
0.515919 1.67916 0
0.403691 1.64615 0
0.631523 1.63487 0
0.522672 1.52455 0
0.512542 1.75646 0
0.284711 1.76775 0
0.515919 1.67916 0
0.403691 1.64615 0
0.512542 1.75646 0
0.515919 1.67916 0
0.740374 1.74518 0
0.631523 1.63487 0
0.631131 0.0812616 0
0.627128 0.0826902 0
0.632412 0.0741088 0
0.625686 0.0698132 0
0.633854 0.0869858 0
0.62857 0.0955672 0
0.631131 0.0812616 0
0.627128 0.0826902 0
0.633854 0.0869858 0
0.631131 0.0812616 0
0.639138 0.0784044 0
0.632412 0.0741088 0
0.339802 -0.278981 0
0.327948 -0.261515 0
0.331172 -0.292441 0
0.298834 -0.270968 0
0.360285 -0.282987 0
0.357061 -0.252061 0
0.339802 -0.278981 0
0.327948 -0.261515 0
0.360285 -0.282987 0
0.339802 -0.278981 0
0.363509 -0.313913 0
0.331172 -0.292441 0
0.999296 -0.00153705 0
0.999676 -0.00143995 0
0.999038 -0.00136679 0
0.99954 -0.00100232 0
0.999174 -0.00180442 0
0.999812 -0.00187758 0
0.999296 -0.00153705 0
0.999676 -0.00143995 0
0.999174 -0.00180442 0
0.999296 -0.00153705 0
0.998536 -0.00173126 0
0.999038 -0.00136679 0
0.976032 -0.121096 0
0.977624 -0.12771 0
0.982022 -0.112662 0
0.991197 -0.117458 0
0.968449 -0.122915 0
0.964051 -0.137962 0
0.976032 -0.121096 0
0.977624 -0.12771 0
0.968449 -0.122915 0
0.976032 -0.121096 0
0.972848 -0.107867 0
0.982022 -0.112662 0
0.907949 0.0598122 0
0.909871 0.0541991 0
0.914645 0.0654037 0
0.914181 0.0541883 0
0.909871 0.0541991 0
0.907484 0.0485968 0
0.914181 0.0541883 0
0.913716 0.0429729 0
0.907949 0.0598122 0
0.901253 0.0542206 0
0.909871 0.0541991 0
0.907484 0.0485968 0
-4.71205 1.4915 0
-5 1.5 0
-4.56808 1.23725 0
-5 1 0
-4.56808 1.73725 0
-5 2 0
-4.71205 1.4915 0
-5 1.5 0
-4.56808 1.73725 0
-4.71205 1.4915 0
-4.13615 1.4745 0
-4.56808 1.23725 0
-3.20414 -2.2507 0
-2.99732 -2.17493 0
[...]
POINT_DATA 44088
SCALARS solution double 1
LOOKUP_TABLE default
-0.841869 -0.873574 -0.858642 -0.938848 -0.793432 -0.808541 -0.841869 -0.873574 -0.793432 -0.841869 -0.778365 -0.858642 0.07767 0.0855712 0.0696 0.0771874 0.0778591 0.0939341 0.07767 0.0855712 0.0778591 0.07767 0.0619346 0.0696 -0.0108031 -0.0127798 -0.01178 -0.0167288 -0.00785316 -0.00886038 -0.0108031 -0.0127798 -0.00785316 -0.0108031 -0.00683079 -0.01178 -0.000184621 -0.000189637 -8.78262e-05 0 -0.00027613 -0.00037791 -0.000184621 -0.000189637 -0.00027613 -0.000184621 -0.000175387 -8.78262e-05 -0.0269127 -0.0216433 -0.0316297 -0.025773 -0.0274657 -0.017574 -0.0269127 -0.0216433 -0.0274657 -0.0269127 -0.0374313 -0.0316297 0.0672125 0.0723866 0.0699692 0.0831308 0.059294 0.0617738 0.0672125 0.0723866 0.059294 0.0672125 0.0567984 0.0699692 -0.0722592 -0.0822126 -0.0691537 -0.0859443 -0.0654097 -0.0785291 -0.0722592 -0.0822126 -0.0654097 -0.0722592 -0.0522932 -0.0691537 -0.000253587 -0.000298407 -0.000260528 -0.00035943 -0.000206087 -0.000264517 -0.000253587 -0.000298407 -0.000206087 -0.000253587 -0.000151833 -0.000260528 -0.0102779 -0.00858975 -0.015409 -0.0171903 -0.00683837 0 -0.0102779 -0.00858975 -0.00683837 -0.0102779 -0.0136603 -0.015409 0.0439968 0.0475595 0.045705 0.0546394 0.038742 0.0405621 0.0439968 0.0475595 0.038742 0.0439968 0.0368357 0.045705 -0.0427712 -0.0439948 -0.0380044 -0.0355251 -0.0463519 -0.052558 -0.0427712 -0.0439948 -0.0463519 -0.0427712 -0.0403226 -0.0380044 0.0362352 0.036882 0.0305765 0.0261451 0.0412574 0.0476533 0.0362352 0.036882 0.0412574 0.0362352 0.034947 0.0305765 0.0207716 0.0240531 0.0236233 0.0329996 0.0146354 0.0150816 0.0207716 0.0240531 0.0146354 0.0207716 0.0142173 0.0236233 0.1689 0.17989 0.169341 0.19173 0.157477 0.168187 0.1689 0.17989 0.157477 0.1689 0.146827 0.169341 0.00159594 0 0.00244508 0 0.00234229 0 0.00159594 0 0.00234229 0.00159594 0.0047105 0.00244508 0.959393 0.895458 0.988186 0.889257 0.994571 0.901658 0.959393 0.895458 0.994571 0.959393 1.08737 0.988186 -0.284662 -0.272295 -0.232414 -0.155503 -0.349319 -0.389364 -0.284662 -0.272295 -0.349319 -0.284662 -0.309243 -0.232414 -0.0527739 -0.063855 -0.0532921 -0.069631 -0.0691537 -0.0859443 -0.063855 -0.069631 -0.0522932 -0.0691537 -0.0527739 -0.063855 0.475675 0.569459 0.364266 0.440251 0.49335 0.698801 0.475675 0.569459 0.49335 0.475675 0.288126 0.364266 -0.00467918 0 -0.0070198 0 -0.00701681 0 -0.00467918 0 -0.00701681 -0.00467918 -0.0140508 -0.0070198 -0.00895655 -0.0115546 -0.0110996 -0.0139258 -0.01178 -0.0167288 -0.0115546 -0.0139258 -0.00683079 -0.01178 -0.00895655 -0.0115546 0.0980239 0.096859 0.0904353 0.0804228 0.106787 0.113263 0.0980239 0.096859 0.106787 0.0980239 0.100427 0.0904353 0.435221 0.465696 0.413852 0.453343 0.426089 0.477787 0.435221 0.465696 0.426089 0.435221 0.374432 0.413852 0.00719049 0 0.0107844 0 0.0107907 0 0.00719049 0 0.0107907 0.00719049 0.0215366 0.0107844 2.14497 2.37528 2.07187 2.4593 1.98773 2.29115 2.14497 2.37528 1.98773 2.14497 1.68438 2.07187 -0.0749107 -0.0770382 -0.0676306 -0.0646455 -0.0800557 -0.089421 -0.0749107 -0.0770382 -0.0800557 -0.0749107 -0.0706332 -0.0676306 0 0 -0.00573633 -0.00860577 0 0 -0.00860501 -0.00573633 -0.00860501 -0.00573633 -0.0171903 -0.00860577 0.451718 0.463625 0.41777 0.407445 0.473769 0.519476 0.451718 0.463625 0.473769 0.451718 0.42828 0.41777 -0.101798 -0.0938694 -0.103294 -0.0889396 -0.108229 -0.0987872 -0.101798 -0.0938694 -0.108229 -0.101798 -0.117669 -0.103294 -1.46441 -1.43916 -1.62684 -1.73881 -1.32722 -1.1396 -1.46441 -1.43916 -1.32722 -1.46441 -1.51479 -1.62684 -0.0831368 -0.0830833 -0.0764595 -0.069719 -0.0898592 -0.0964375 -0.0831368 -0.0830833 -0.0898592 -0.0831368 -0.0832223 -0.0764595 -2.45665 -2.55211 -2.53086 -2.79597 -2.28698 -2.30821 -2.45665 -2.55211 -2.28698 -2.45665 -2.26576 -2.53086 1.66899 1.63574 1.62452 1.51333 1.74674 1.75814 1.66899 1.63574 1.74674 1.66899 1.73564 1.62452 0.0331608 0.0343955 0.0254679 0.0202019 0.0396123 0.0485202 0.0331608 0.0343955 0.0396123 0.0331608 0.0307236 0.0254679 -0.266906 -0.24882 -0.280801 -0.258681 -0.271097 -0.239082 -0.266906 -0.24882 -0.271097 -0.266906 -0.302982 -0.280801 -0.00224848 -0.00220336 -0.00198922 -0.00158462 -0.00256544 -0.00278113 -0.00224848 -0.00220336 -0.00256544 -0.00224848 -0.00239713 -0.00198922 -0.121686 -0.128262 -0.11348 -0.118421 -0.123319 -0.138113 -0.121686 -0.128262 -0.123319 -0.121686 -0.108533 -0.11348 0.0415245 0.036368 0.0476533 0.036882 0.036368 0.0306985 0.036882 0.0261451 0.0415245 0.0353196 0.036368 0.0306985 1.49121 1.5 1.23682 1 1.73683 2 1.49121 1.5 1.73683 1.49121 1.47363 1.23682 -2.25126 -2.17557 -2.08908 -1.77556 -2.48915 -2.57562 -2.25126 -2.17557 -2.48915 -2.25126 -2.40265 -2.08908 -1.62848 -1.82139 -1.50914 -1.77556 -1.5549 -1.86719 -1.62848 -1.82139 -1.5549 -1.62848 -1.24267 -1.50914 0.0126912 0.0166169 0.013281 0.0221221 0.00834248 0.0111392 0.0126912 0.0166169 0.00834248 0.0126912 0.00542567 0.013281 0.037511 0.0383823 0.0317304 0.0276233 0.042429 0.0491335 0.037511 0.0383823 0.042429 0.037511 0.0358166 0.0317304 -0.26481 -0.278767 -0.265499 -0.294009 -0.250148 -0.263445 -0.26481 -0.278767 -0.250148 -0.26481 -0.236915 -0.265499 0.0159733 0.0148701 0.0181659 0.0180649 0.0148777 0.0116321 0.0159733 0.0148701 0.0148777 0.0159733 0.0181911 0.0181659 -0.00725095 -0.00700082 -0.00597555 -0.00431366 -0.0087399 -0.00964012 -0.00725095 -0.00700082 -0.0087399 -0.00725095 -0.00772931 -0.00597555 0.0683227 0.060426 0.0741732 0.0643164 0.070385 0.056566 0.0683227 0.060426 0.070385 0.0683227 0.0841721 0.0741732 -0.84229 -0.642137 -0.796426 -0.350193 -1.08831 -0.933986 -0.84229 -0.642137 -1.08831 -0.84229 -1.24267 -0.796426 0.511309 0.482157 0.508467 0.447034 0.543338 0.516967 0.511309 0.482157 0.543338 0.511309 0.569986 0.508467 0.153075 0.143518 0.150718 0.129423 0.16499 0.157724 0.153075 0.143518 0.16499 0.153075 0.172122 0.150718 -0.00220036 -0.00199789 -0.00278113 -0.00220336 -0.00199789 -0.00158678 -0.00220336 -0.00158462 -0.00220036 -0.00169049 -0.00199789 -0.00158678 0.145514 0.0743872 0.256686 0.225215 0.10555 -0.0765682 0.145514 0.0743872 0.10555 0.145514 0.288083 0.256686 0.034944 0.0273237 0.0327048 0.0160991 0.0447117 0.039031 0.034944 0.0273237 0.0447117 0.034944 0.049689 0.0327048 1.29897 1.28486 1.24965 1.17192 1.36242 1.39766 1.29897 1.28486 1.36242 1.29897 1.32732 1.24965 0.186558 0.198254 0.191928 0.220564 0.169488 0.176006 0.186558 0.198254 0.169488 0.186558 0.163087 0.191928 -0.0438045 -0.0428597 -0.0472721 -0.0488388 -0.0412812 -0.0368628 -0.0438045 -0.0428597 -0.0412812 -0.0438045 -0.0457118 -0.0472721 -2.45204 -2.27524 -2.63198 -2.45826 -2.44891 -2.09217 -2.45204 -2.27524 -2.44891 -2.45204 -2.80569 -2.63198 -0.0605959 -0.0554048 -0.0670044 -0.0630847 -0.0593828 -0.0477695 -0.0605959 -0.0554048 -0.0593828 -0.0605959 -0.0709556 -0.0670044 -2.13493 -2.01513 -1.86719 -1.82139 -2.01513 -2.08908 -1.82139 -1.77556 -2.13493 -2.40265 -2.01513 -2.08908 1.20451 1.13849 1.17708 1.0177 1.2979 1.259 1.20451 1.13849 1.2979 1.20451 1.33671 1.17708 2.13945 2.00571 2.19774 1.98874 2.21488 2.02286 2.13945 2.00571 2.21488 2.13945 2.40677 2.19774 0.267466 0.257085 0.260395 0.232379 0.284954 0.281959 0.267466 0.257085 0.284954 0.267466 0.288218 0.260395 -2.09217 -1.91551 -2.27524 -2.09642 -2.27524 -2.09642 -2.45826 -2.09851 -1.91551 -1.73881 -2.09642 -2.09851 0.00456131 0.00338081 0.00548491 0.00400711 0.00483085 0.00270726 0.00456131 0.00338081 0.00483085 0.00456131 0.0070074 0.00548491 0.896929 0.864489 0.995475 1.02889 0.830763 0.699957 0.896929 0.864489 0.830763 0.896929 0.961803 0.995475 1.73683 1.47363 1.97764 1.96643 1.73683 1.97764 2 2.22963 1.97764 1.96643 2.22963 2.4593 -0.0187682 -0.0179624 -0.00939042 -0.0119861 0 -0.00939042 -0.00860577 -0.0119861 -0.0171903 -0.00860577 -0.0179624 -0.0119861 -0.0102989 -0.010574 -0.00873677 -0.0075071 -0.0116466 -0.0137112 -0.0102989 -0.010574 -0.0116466 -0.0102989 -0.00985819 -0.00873677 0.317776 0.2514 0.321773 0.193025 0.380242 0.309522 0.317776 0.2514 0.380242 0.317776 0.450941 0.321773 -2.92144 -2.72547 -2.98906 -2.66471 -3.0498 -2.7862 -2.92144 -2.72547 -3.0498 -2.92144 -3.31343 -2.98906 -0.252344 -0.220146 -0.195576 -0.17566 -0.232414 -0.155503 -0.220146 -0.17566 -0.309243 -0.232414 -0.252344 -0.220146 -0.144021 -0.13318 -0.14697 -0.128233 -0.151912 -0.138113 -0.144021 -0.13318 -0.151912 -0.144021 -0.165723 -0.14697 0.0765135 0.0786928 0.0617738 0.0723866 0.0786928 0.0871794 0.0723866 0.0831308 0.0765135 0.091189 0.0786928 0.0871794 -0.0539527 -0.0725183 -0.0502243 -0.0836732 -0.0391391 -0.0612932 -0.0539527 -0.0725183 -0.0391391 -0.0539527 -0.0170041 -0.0502243 0.10307 0.0964691 0.091189 0.0871794 0.0964691 0.0991453 0.0871794 0.0831308 0.10307 0.115029 0.0964691 0.0991453 0.00900607 0.0108216 0.00993026 0.0145414 0.00627376 0.00718256 0.00900607 0.0108216 0.00627376 0.00900607 0.00533272 0.00993026 0.336441 0.351466 0.309906 0.313225 0.347973 0.389629 0.336441 0.351466 0.347973 0.336441 0.306526 0.309906 -0.0385657 -0.0415657 -0.0426006 -0.052606 -0.0315256 -0.0304958 -0.0385657 -0.0415657 -0.0315256 -0.0385657 -0.0325695 -0.0426006 0.0344909 0.0269207 0.0376686 0.0257629 0.0388789 0.0281237 0.0344909 0.0269207 0.0388789 0.0344909 0.0495712 0.0376686 0.472167 0.38831 0.383778 0.127848 0.644433 0.648955 0.472167 0.38831 0.644433 0.472167 0.639817 0.383778 0.163952 0.169341 0.172512 0.19173 0.149989 0.146827 0.163952 0.169341 0.149989 0.163952 0.153228 0.172512 2.32865 2.26455 2.46692 2.47715 2.25445 2.05208 2.32865 2.26455 2.25445 2.32865 2.4567 2.46692 -0.0313206 -0.0384248 -0.030087 -0.0413508 -0.0426006 -0.052606 -0.0384248 -0.0413508 -0.0325695 -0.0426006 -0.0313206 -0.0384248 0.0972115 0.0950342 0.0918127 0.0821253 0.104795 0.108081 0.0972115 0.0950342 0.104795 0.0972115 0.101482 0.0918127 0.0356396 0.0292443 0.0221221 0.0195608 0.0327048 0.0160991 0.0292443 0.0195608 0.049689 0.0327048 0.0356396 0.0292443 0.0424817 0.0465555 0.0481967 0.051474 0.045705 0.0546394 0.0465555 0.051474 0.0368357 0.045705 0.0424817 0.0465555 0 0 -0.00573002 -0.00860501 0 -0.00573002 0 -0.00858975 -0.00573002 -0.00860501 -0.00858975 -0.0171903 -0.536052 -0.558761 -0.498009 -0.505429 -0.551388 -0.612173 -0.536052 -0.558761 -0.551388 -0.536052 -0.490544 -0.498009 -2.49632 -2.34164 -2.44891 -2.09217 -2.49632 -2.69843 -2.34164 -2.59114 -2.49632 -2.44891 -2.69843 -2.80569 -0.00951894 -0.00725418 -0.00980117 -0.00558146 -0.0115018 -0.0089504 -0.00951894 -0.00725418 -0.0115018 -0.00951894 -0.01403 -0.00980117 0.0284596 0.0318466 0.0230285 0.0245775 0.0305301 0.0394108 0.0284596 0.0318466 0.0305301 0.0284596 0.0215455 0.0230285 -0.661429 -0.662269 -0.568555 -0.477352 -0.753487 -0.847324 -0.661429 -0.662269 -0.753487 -0.661429 -0.659682 -0.568555 -0.0537271 -0.0565357 -0.0469984 -0.0458922 -0.0576494 -0.0672076 -0.0537271 -0.0565357 -0.0576494 -0.0537271 -0.0480895 -0.0469984 1.03024 1.24811 0.741098 0.887637 1.10154 1.60863 1.03024 1.24811 1.10154 1.03024 0.594501 0.741098 -0.070068 -0.0634642 -0.0769222 -0.0705601 -0.0698107 -0.0564015 -0.070068 -0.0634642 -0.0698107 -0.070068 -0.0832223 -0.0769222 -0.232468 -0.230243 -0.250148 -0.263445 -0.232468 -0.21701 -0.230243 -0.197008 -0.232468 -0.250148 -0.21701 -0.236915 -0.448119 -0.482475 -0.425963 -0.472724 -0.435888 -0.492145 -0.448119 -0.482475 -0.435888 -0.448119 -0.379389 -0.425963 -0.01377 -0.0162199 -0.0160379 -0.0231546 -0.00905054 -0.00923106 -0.01377 -0.0162199 -0.00905054 -0.01377 -0.00890828 -0.0160379 -0.00666624 -0.00505794 -0.00745891 -0.00519898 -0.0074762 -0.00493381 -0.00666624 -0.00505794 -0.0074762 -0.00666624 -0.00985819 -0.00745891 -1.14479 -1.20716 -1.20187 -1.38383 -1.02535 -1.03049 -1.14479 -1.20716 -1.02535 -1.14479 -1.01999 -1.20187 1.57902 1.87244 1.47363 1.96643 1.87244 2.07187 1.96643 2.4593 1.57902 1.68438 1.87244 2.07187 -0.0233098 -0.0434028 -0.029511 -0.0566481 -0.0502243 -0.0836732 -0.0434028 -0.0566481 -0.0170041 -0.0502243 -0.0233098 -0.0434028 -0.23389 -0.230243 -0.219062 -0.197008 -0.23389 -0.252362 -0.230243 -0.263445 -0.23389 -0.219062 -0.252362 -0.241241 -0.0137992 -0.0108907 -0.0142434 -0.00888506 -0.0162645 -0.0129018 -0.0137992 -0.0108907 -0.0162645 -0.0137992 -0.0196164 -0.0142434 -0.107578 -0.100368 -0.115315 -0.108663 -0.107044 -0.0921128 -0.107578 -0.100368 -0.107044 -0.107578 -0.121926 -0.115315 1.50633 1.63004 1.42489 1.59071 1.46404 1.66932 1.50633 1.63004 1.46404 1.50633 1.259 1.42489 -0.317627 -0.294073 -0.321743 -0.278805 -0.337046 -0.309243 -0.317627 -0.294073 -0.337046 -0.317627 -0.36476 -0.321743 -0.00295111 0 -0.00441834 0 -0.00443454 0 -0.00295111 0 -0.00443454 -0.00295111 -0.00886038 -0.00441834 -0.0231815 -0.0231992 -0.0205438 -0.0178075 -0.0258445 -0.0287245 -0.0231815 -0.0231992 -0.0258445 -0.0231815 -0.0231046 -0.0205438 0.0219903 0.0256558 0.0297563 0.0313556 0.0236233 0.0329996 0.0256558 0.0313556 0.0142173 0.0236233 0.0219903 0.0256558 0.00977685 0.0155115 0.00961221 0.0207042 0.00422812 0.0102686 0.00977685 0.0155115 0.00422812 0.00977685 -0.00164267 0.00961221 -0.0839275 -0.0903909 -0.0844558 -0.0980257 -0.0769625 -0.0829805 -0.0839275 -0.0903909 -0.0769625 -0.0839275 -0.0708722 -0.0844558 0.538751 0.554556 0.503019 0.498684 0.558712 0.610319 0.538751 0.554556 0.558712 0.538751 0.507355 0.503019 0.0065606 0.00923739 0.00781096 0.0112156 0.00993026 0.0145414 0.00923739 0.0112156 0.00533272 0.00993026 0.0065606 0.00923739 4.43893 4.5337 4.62463 5 4.15848 4.06744 4.43893 4.5337 4.15848 4.43893 4.24949 4.62463 -0.00692463 0 -0.0103936 0 -0.0103821 0 -0.00692463 0 -0.0103821 -0.00692463 -0.0207556 -0.0103936 -0.0682036 -0.066983 -0.0737159 -0.0768276 -0.0639153 -0.0571709 -0.0682036 -0.066983 -0.0639153 -0.0682036 -0.0706332 -0.0737159 3.77741 3.68538 4.04693 4.13233 3.59991 3.23826 3.77741 3.68538 3.59991 3.77741 3.96157 4.04693 -0.1378 -0.145249 -0.124532 -0.126245 -0.143621 -0.164322 -0.1378 -0.145249 -0.143621 -0.1378 -0.122849 -0.124532 1.36242 1.41274 1.39766 1.45544 1.41274 1.42037 1.45544 1.51333 1.36242 1.32732 1.41274 1.42037 -0.0155535 -0.0112685 -0.019042 -0.0140402 -0.0163339 -0.00854534 -0.0155535 -0.0112685 -0.0163339 -0.0155535 -0.0240172 -0.019042 -0.00613988 -0.00702415 -0.00697696 -0.0097893 -0.00436482 -0.00407907 -0.00613988 -0.00702415 -0.00436482 -0.00613988 -0.00438928 -0.00697696 -0.0977495 -0.104989 -0.0898592 -0.0964375 -0.0977495 -0.0983966 -0.104989 -0.113567 -0.0977495 -0.0898592 -0.0983966 -0.0832223 -0.0920727 -0.082987 -0.0988403 -0.0875159 -0.0943931 -0.0785291 -0.0920727 -0.082987 -0.0943931 -0.0920727 -0.110195 -0.0988403 -0.0083959 -0.00701681 -0.0126031 -0.0140508 -0.0083959 -0.00556843 -0.00701681 0 -0.0083959 -0.0126031 -0.00556843 -0.0111432 -0.00824496 -0.00983845 -0.00442741 -0.00407907 -0.00824496 -0.0104116 -0.00983845 -0.0160351 -0.00824496 -0.00442741 -0.0104116 -0.00458426 -0.115456 -0.113635 -0.102825 -0.086628 -0.129914 -0.140718 -0.115456 -0.113635 -0.129914 -0.115456 -0.119077 -0.102825 -0.0768122 -0.0816209 -0.0817263 -0.09629 -0.0670945 -0.0669625 -0.0768122 -0.0816209 -0.0670945 -0.0768122 -0.0672076 -0.0817263 -0.0183599 -0.0143776 -0.0184454 -0.0105826 -0.0222581 -0.0181758 -0.0183599 -0.0143776 -0.0222581 -0.0183599 -0.0263285 -0.0184454 -0.11597 -0.118978 -0.104078 -0.0980257 -0.124847 -0.139745 -0.11597 -0.118978 -0.124847 -0.11597 -0.110081 -0.104078 -0.0141051 -0.0149765 -0.00886038 -0.0127798 -0.0149765 -0.0180441 -0.0127798 -0.0167288 -0.0141051 -0.0193486 -0.0149765 -0.0180441 0.345277 0.364664 0.347973 0.389629 0.345277 0.323214 0.364664 0.339786 0.345277 0.347973 0.323214 0.306526 -1.80344 -1.78193 -2.09217 -1.91551 -1.78193 -1.62684 -1.91551 -1.73881 -1.80344 -1.51479 -1.78193 -1.62684 -0.0167271 -0.0143836 -0.0160351 -0.0129787 -0.0143836 -0.0134001 -0.0129787 -0.0097893 -0.0167271 -0.0172198 -0.0143836 -0.0134001 -0.205323 -0.188987 -0.211688 -0.185357 -0.215301 -0.19258 -0.205323 -0.188987 -0.215301 -0.205323 -0.238052 -0.211688 0.00410111 0 0.00614064 0 0.00616492 0 0.00410111 0 0.00616492 0.00410111 0.0122964 0.00614064 -0.100753 -0.0915606 -0.107736 -0.09629 -0.10296 -0.0868134 -0.100753 -0.0915606 -0.10296 -0.100753 -0.119145 -0.107736 -0.03136 -0.0361974 -0.0345425 -0.0402186 -0.0370131 -0.0458922 -0.0361974 -0.0402186 -0.0281539 -0.0370131 -0.03136 -0.0361974 -0.035267 -0.0317135 -0.0384674 -0.0345425 -0.0356166 -0.0288764 -0.035267 -0.0317135 -0.0356166 -0.035267 -0.0423656 -0.0384674 0.0399694 0.0428607 0.0313692 0.0285565 0.0456761 0.0570998 0.0399694 0.0428607 0.0456761 0.0399694 0.0342352 0.0313692 0.214146 0.26934 0.337251 0.570881 0.0358508 -0.0321727 0.214146 0.26934 0.0358508 0.214146 0.10378 0.337251 -0.00816227 -0.0070198 -0.00521536 0 -0.012252 -0.0140508 -0.00816227 -0.0070198 -0.012252 -0.00816227 -0.0104402 -0.00521536 0.0399775 0.0334885 0.042866 0.0328016 0.0435813 0.0342352 0.0399775 0.0334885 0.0435813 0.0399775 0.0529084 0.042866 0.737577 0.707249 0.774704 0.751285 0.730826 0.66309 0.737577 0.707249 0.730826 0.737577 0.798439 0.774704 0.0867988 0.0926969 0.0830646 0.091189 0.0867988 0.0846306 0.0926969 0.0941853 0.0867988 0.0830646 0.0846306 0.0749947 0.0194761 0.0201119 0.0163966 0.0145414 0.0219314 0.0257412 0.0194761 0.0201119 0.0219314 0.0194761 0.0181911 0.0163966 -0.00201777 -0.00126681 -0.00176036 0 -0.00301552 -0.00256223 -0.00201777 -0.00126681 -0.00301552 -0.00201777 -0.00346593 -0.00176036 0.952861 0.920105 0.940748 0.863034 0.997748 0.977361 0.952861 0.920105 0.997748 0.952861 1.01829 0.940748 2.08234 1.80435 2.31916 2 2.1235 1.60863 2.08234 1.80435 2.1235 2.08234 2.63842 2.31916 -0.0382228 -0.0399545 -0.0435273 -0.0522932 -0.0382228 -0.0311893 -0.0399545 -0.0275897 -0.0382228 -0.0435273 -0.0311893 -0.0347974 -3.20928 -3.42082 -3.04406 -3.3019 -3.16295 -3.53973 -3.20928 -3.42082 -3.16295 -3.20928 -2.7862 -3.04406 -0.133261 -0.140304 -0.121745 -0.124312 -0.137735 -0.156327 -0.133261 -0.140304 -0.137735 -0.133261 -0.119145 -0.121745 0.0525974 0.0544992 0.0448618 0.0408916 0.0584237 0.0679182 0.0525974 0.0544992 0.0584237 0.0525974 0.0489291 0.0448618 2.25427 2.19774 2.17809 1.98874 2.38699 2.40677 2.25427 2.19774 2.38699 2.25427 2.36731 2.17809 0.0694711 0.0759212 0.0645174 0.0652253 0.0630373 0.0694711 0.0588677 0.0645174 0.0588677 0.0645174 0.0546394 0.0652253 0.0344149 0.027328 0.0343955 0.0202019 0.0415138 0.03449 0.0344149 0.027328 0.0415138 0.0344149 0.0485202 0.0343955 -0.0211817 -0.0219578 -0.0240906 -0.0285479 -0.0174968 -0.0153815 -0.0211817 -0.0219578 -0.0174968 -0.0211817 -0.0196164 -0.0240906 -0.139708 -0.148981 -0.144023 -0.166798 -0.126109 -0.131099 -0.139708 -0.148981 -0.126109 -0.139708 -0.121186 -0.144023 -2.33744 -2.39826 -2.19626 -2.17666 -2.41783 -2.61986 -2.33744 -2.39826 -2.41783 -2.33744 -2.21584 -2.19626 -0.193178 -0.188245 -0.206327 -0.209643 -0.184977 -0.166782 -0.193178 -0.188245 -0.184977 -0.193178 -0.203157 -0.206327 0.00333727 0 0.00499212 0 0.00502248 0 0.00333727 0 0.00502248 0.00333727 0.0100051 0.00499212 0.389678 0.369584 0.359841 0.290288 0.439559 0.448909 0.389678 0.369584 0.439559 0.389678 0.429896 0.359841 -0.574105 -0.214279 -0.499488 -0.282211 -0.933986 -0.574105 -0.642137 -0.499488 -0.642137 -0.499488 -0.350193 -0.282211 -0.980491 -0.920194 -0.974169 -0.847324 -0.980491 -1.04709 -0.920194 -0.993033 -0.980491 -0.974169 -1.04709 -1.10108 0.103569 0.0926908 0.104971 0.0846381 0.113035 0.100834 0.103569 0.0926908 0.113035 0.103569 0.125187 0.104971 -0.295239 -0.201 -0.248602 -0.178257 -0.389364 -0.295239 -0.272295 -0.248602 -0.272295 -0.248602 -0.155503 -0.178257 -0.128497 -0.128412 -0.138113 -0.13318 -0.128412 -0.123557 -0.13318 -0.128233 -0.128497 -0.11888 -0.128412 -0.123557 -0.232108 -0.254185 -0.271567 -0.355526 -0.170554 -0.152777 -0.232108 -0.254185 -0.170554 -0.232108 -0.187959 -0.271567 -0.01729 -0.0162645 -0.0194858 -0.0196164 -0.01729 -0.0161182 -0.0162645 -0.0129018 -0.01729 -0.0194858 -0.0161182 -0.0193486 0.0317567 0.0350158 0.0249302 0.024599 0.0353201 0.0453552 0.0317567 0.0350158 0.0353201 0.0317567 0.025292 0.0249302 -0.0886227 -0.0887335 -0.0987872 -0.0938694 -0.0887335 -0.0837082 -0