# vtk DataFile Version 3.0
#This file was generated by the deal.II library on 2023/6/6 at 21:18:10
ASCII
DATASET UNSTRUCTURED_GRID

POINTS 10240 double
2 -1.22465e-16 0
1.99961 0.0392674 0
1.89062 -1.15767e-16 0
1.89026 0.0371199 0
1.99961 0.0392674 0
1.99846 0.0785196 0
1.89026 0.0371199 0
1.88917 0.0742256 0
1.89062 -1.15767e-16 0
1.89026 0.0371199 0
1.78125 -1.0907e-16 0
1.78091 0.0349725 0
1.89026 0.0371199 0
1.88917 0.0742256 0
1.78091 0.0349725 0
1.77988 0.0699315 0
1.99846 0.0785196 0
1.99653 0.117742 0
1.88917 0.0742256 0
1.88735 0.111303 0
1.99653 0.117742 0
1.99383 0.156918 0
1.88735 0.111303 0
1.8848 0.148337 0
1.88917 0.0742256 0
1.88735 0.111303 0
1.77988 0.0699315 0
1.77816 0.104864 0
1.88735 0.111303 0
1.8848 0.148337 0
1.77816 0.104864 0
1.77576 0.139755 0
1.78125 -1.0907e-16 0
1.78091 0.0349725 0
1.67188 -1.02373e-16 0
1.67155 0.0328251 0
1.78091 0.0349725 0
1.77988 0.0699315 0
1.67155 0.0328251 0
1.67059 0.0656375 0
1.67188 -1.02373e-16 0
1.67155 0.0328251 0
1.5625 -9.56755e-17 0
1.5622 0.0306776 0
1.67155 0.0328251 0
1.67059 0.0656375 0
1.5622 0.0306776 0
1.5613 0.0613435 0
1.77988 0.0699315 0
1.77816 0.104864 0
1.67059 0.0656375 0
1.66898 0.0984246 0
1.77816 0.104864 0
1.77576 0.139755 0
1.66898 0.0984246 0
1.66672 0.131174 0
1.67059 0.0656375 0
1.66898 0.0984246 0
1.5613 0.0613435 0
1.55979 0.0919856 0
1.66898 0.0984246 0
1.66672 0.131174 0
1.55979 0.0919856 0
1.55768 0.122592 0
1.99383 0.156918 0
1.99037 0.196034 0
1.8848 0.148337 0
1.88152 0.185314 0
1.99037 0.196034 0
1.98614 0.235075 0
1.88152 0.185314 0
1.87752 0.222219 0
1.8848 0.148337 0
1.88152 0.185314 0
1.77576 0.139755 0
1.77267 0.174593 0
1.88152 0.185314 0
1.87752 0.222219 0
1.77267 0.174593 0
1.7689 0.209363 0
1.98614 0.235075 0
1.98114 0.274025 0
1.87752 0.222219 0
1.8728 0.259039 0
1.98114 0.274025 0
1.97538 0.312869 0
1.8728 0.259039 0
1.86735 0.295759 0
1.87752 0.222219 0
1.8728 0.259039 0
1.7689 0.209363 0
1.76445 0.244053 0
1.8728 0.259039 0
1.86735 0.295759 0
1.76445 0.244053 0
1.75932 0.278649 0
1.77576 0.139755 0
1.77267 0.174593 0
1.66672 0.131174 0
1.66382 0.163872 0
1.77267 0.174593 0
1.7689 0.209363 0
1.66382 0.163872 0
1.66029 0.196508 0
1.66672 0.131174 0
1.66382 0.163872 0
1.55768 0.122592 0
1.55498 0.153152 0
1.66382 0.163872 0
1.66029 0.196508 0
1.55498 0.153152 0
1.55167 0.183652 0
1.7689 0.209363 0
1.76445 0.244053 0
1.66029 0.196508 0
1.65611 0.229068 0
1.76445 0.244053 0
1.75932 0.278649 0
1.65611 0.229068 0
1.65129 0.261539 0
1.66029 0.196508 0
1.65611 0.229068 0
1.55167 0.183652 0
1.54776 0.214082 0
1.65611 0.229068 0
1.65129 0.261539 0
1.54776 0.214082 0
1.54326 0.244429 0
1.5625 -9.56755e-17 0
1.5622 0.0306776 0
1.45312 -8.89782e-17 0
1.45284 0.0285302 0
1.5622 0.0306776 0
1.5613 0.0613435 0
1.45284 0.0285302 0
1.452 0.0570494 0
1.45312 -8.89782e-17 0
1.45284 0.0285302 0
1.34375 -8.2281e-17 0
1.34349 0.0263828 0
1.45284 0.0285302 0
1.452 0.0570494 0
1.34349 0.0263828 0
1.34271 0.0527554 0
1.5613 0.0613435 0
1.55979 0.0919856 0
1.452 0.0570494 0
1.4506 0.0855466 0
1.55979 0.0919856 0
1.55768 0.122592 0
1.4506 0.0855466 0
1.44865 0.114011 0
1.452 0.0570494 0
1.4506 0.0855466 0
1.34271 0.0527554 0
1.34142 0.0791076 0
1.4506 0.0855466 0
1.44865 0.114011 0
1.34142 0.0791076 0
1.33961 0.105429 0
1.34375 -8.2281e-17 0
1.34349 0.0263828 0
1.23438 -7.55837e-17 0
1.23414 0.0242353 0
1.34349 0.0263828 0
1.34271 0.0527554 0
1.23414 0.0242353 0
1.23342 0.0484613 0
1.23438 -7.55837e-17 0
1.23414 0.0242353 0
1.125 -6.88864e-17 0
1.12478 0.0220879 0
1.23414 0.0242353 0
1.23342 0.0484613 0
1.12478 0.0220879 0
1.12413 0.0441673 0
1.34271 0.0527554 0
1.34142 0.0791076 0
1.23342 0.0484613 0
1.23223 0.0726686 0
1.34142 0.0791076 0
1.33961 0.105429 0
1.23223 0.0726686 0
1.23057 0.0968479 0
1.23342 0.0484613 0
1.23223 0.0726686 0
1.12413 0.0441673 0
1.12305 0.0662297 0
1.23223 0.0726686 0
1.23057 0.0968479 0
1.12305 0.0662297 0
1.12153 0.0882665 0
1.55768 0.122592 0
1.55498 0.153152 0
1.44865 0.114011 0
1.44613 0.142431 0
1.55498 0.153152 0
1.55167 0.183652 0
1.44613 0.142431 0
1.44305 0.170797 0
1.44865 0.114011 0
1.44613 0.142431 0
1.33961 0.105429 0
1.33728 0.131711 0
1.44613 0.142431 0
1.44305 0.170797 0
1.33728 0.131711 0
1.33444 0.157941 0
1.55167 0.183652 0
1.54776 0.214082 0
1.44305 0.170797 0
1.43942 0.199096 0
1.54776 0.214082 0
1.54326 0.244429 0
1.43942 0.199096 0
1.43523 0.227319 0
1.44305 0.170797 0
1.43942 0.199096 0
1.33444 0.157941 0
1.33108 0.18411 0
1.43942 0.199096 0
1.43523 0.227319 0
1.33108 0.18411 0
1.32721 0.210209 0
1.33961 0.105429 0
1.33728 0.131711 0
1.23057 0.0968479 0
1.22843 0.12099 0
1.33728 0.131711 0
1.33444 0.157941 0
1.22843 0.12099 0
1.22582 0.145085 0
1.23057 0.0968479 0
1.22843 0.12099 0
1.12153 0.0882665 0
1.11958 0.110269 0
1.22843 0.12099 0
1.22582 0.145085 0
1.11958 0.110269 0
1.1172 0.13223 0
1.33444 0.157941 0
1.33108 0.18411 0
1.22582 0.145085 0
1.22273 0.169125 0
1.33108 0.18411 0
1.32721 0.210209 0
1.22273 0.169125 0
1.21918 0.193099 0
1.22582 0.145085 0
1.22273 0.169125 0
1.1172 0.13223 0
1.11439 0.154139 0
1.22273 0.169125 0
1.21918 0.193099 0
1.11439 0.154139 0
1.11115 0.175989 0
1.97538 0.312869 0
1.96885 0.351593 0
1.86735 0.295759 0
1.86118 0.332365 0
1.96885 0.351593 0
1.96157 0.390181 0
1.86118 0.332365 0
1.8543 0.368843 0
1.86735 0.295759 0
1.86118 0.332365 0
1.75932 0.278649 0
1.75351 0.313137 0
1.86118 0.332365 0
1.8543 0.368843 0
1.75351 0.313137 0
1.74702 0.347505 0
1.96157 0.390181 0
1.95353 0.428618 0
1.8543 0.368843 0
1.8467 0.405178 0
1.95353 0.428618 0
1.94474 0.466891 0
1.8467 0.405178 0
1.83839 0.441358 0
1.8543 0.368843 0
1.8467 0.405178 0
1.74702 0.347505 0
1.73986 0.381738 0
1.8467 0.405178 0
1.83839 0.441358 0
1.73986 0.381738 0
1.73203 0.415825 0
1.75932 0.278649 0
1.75351 0.313137 0
1.65129 0.261539 0
1.64584 0.293909 0
1.75351 0.313137 0
1.74702 0.347505 0
1.64584 0.293909 0
1.63975 0.326167 0
1.65129 0.261539 0
1.64584 0.293909 0
1.54326 0.244429 0
1.53817 0.274682 0
1.64584 0.293909 0
1.63975 0.326167 0
1.53817 0.274682 0
1.53248 0.304829 0
1.74702 0.347505 0
1.73986 0.381738 0
1.63975 0.326167 0
1.63303 0.358298 0
1.73986 0.381738 0
1.73203 0.415825 0
1.63303 0.358298 0
1.62568 0.390291 0
1.63975 0.326167 0
1.63303 0.358298 0
1.53248 0.304829 0
1.5262 0.334858 0
1.63303 0.358298 0
1.62568 0.390291 0
1.5262 0.334858 0
1.51933 0.364758 0
1.94474 0.466891 0
1.9352 0.504983 0
1.83839 0.441358 0
1.82937 0.477367 0
1.9352 0.504983 0
1.92491 0.542881 0
1.82937 0.477367 0
1.81964 0.513192 0
1.83839 0.441358 0
1.82937 0.477367 0
1.73203 0.415825 0
1.72354 0.449751 0
1.82937 0.477367 0
1.81964 0.513192 0
1.72354 0.449751 0
1.71437 0.483503 0
1.92491 0.542881 0
1.91388 0.580569 0
1.81964 0.513192 0
1.80922 0.548819 0
1.91388 0.580569 0
1.90211 0.618034 0
1.80922 0.548819 0
1.79809 0.584235 0
1.81964 0.513192 0
1.80922 0.548819 0
1.71437 0.483503 0
1.70455 0.51707 0
1.80922 0.548819 0
1.79809 0.584235 0
1.70455 0.51707 0
1.69407 0.550437 0
1.73203 0.415825 0
1.72354 0.449751 0
1.62568 0.390291 0
1.6177 0.422134 0
1.72354 0.449751 0
1.71437 0.483503 0
1.6177 0.422134 0
1.6091 0.453815 0
1.62568 0.390291 0
1.6177 0.422134 0
1.51933 0.364758 0
1.51187 0.394518 0
1.6177 0.422134 0
1.6091 0.453815 0
1.51187 0.394518 0
1.50384 0.424126 0
1.71437 0.483503 0
1.70455 0.51707 0
1.6091 0.453815 0
1.59988 0.48532 0
1.70455 0.51707 0
1.69407 0.550437 0
1.59988 0.48532 0
1.59005 0.516638 0
1.6091 0.453815 0
1.59988 0.48532 0
1.50384 0.424126 0
1.49522 0.45357 0
1.59988 0.48532 0
1.59005 0.516638 0
1.49522 0.45357 0
1.48603 0.482839 0
1.54326 0.244429 0
1.53817 0.274682 0
1.43523 0.227319 0
1.43049 0.255454 0
1.53817 0.274682 0
1.53248 0.304829 0
1.43049 0.255454 0
1.4252 0.283491 0
1.43523 0.227319 0
1.43049 0.255454 0
1.32721 0.210209 0
1.32282 0.236226 0
1.43049 0.255454 0
1.4252 0.283491 0
1.32282 0.236226 0
1.31793 0.262153 0
1.53248 0.304829 0
1.5262 0.334858 0
1.4252 0.283491 0
1.41936 0.311418 0
1.5262 0.334858 0
1.51933 0.364758 0
1.41936 0.311418 0
1.41298 0.339225 0
1.4252 0.283491 0
1.41936 0.311418 0
1.31793 0.262153 0
1.31253 0.287978 0
1.41936 0.311418 0
1.41298 0.339225 0
1.31253 0.287978 0
1.30662 0.313692 0
1.32721 0.210209 0
1.32282 0.236226 0
1.21918 0.193099 0
1.21515 0.216999 0
1.32282 0.236226 0
1.31793 0.262153 0
1.21515 0.216999 0
1.21066 0.240815 0
1.21918 0.193099 0
1.21515 0.216999 0
1.11115 0.175989 0
1.10748 0.197771 0
1.21515 0.216999 0
1.21066 0.240815 0
1.10748 0.197771 0
1.10338 0.219477 0
1.31793 0.262153 0
1.31253 0.287978 0
1.21066 0.240815 0
1.2057 0.264538 0
1.31253 0.287978 0
1.30662 0.313692 0
1.2057 0.264538 0
1.20027 0.288159 0
1.21066 0.240815 0
1.2057 0.264538 0
1.10338 0.219477 0
1.09886 0.241098 0
1.2057 0.264538 0
1.20027 0.288159 0
1.09886 0.241098 0
1.09392 0.262626 0
1.51933 0.364758 0
1.51187 0.394518 0
1.41298 0.339225 0
1.40604 0.366902 0
1.51187 0.394518 0
1.50384 0.424126 0
1.40604 0.366902 0
1.39857 0.394437 0
1.41298 0.339225 0
1.40604 0.366902 0
1.30662 0.313692 0
1.30021 0.339286 0
1.40604 0.366902 0
1.39857 0.394437 0
1.30021 0.339286 0
1.2933 0.364748 0
1.50384 0.424126 0
1.49522 0.45357 0
1.39857 0.394437 0
1.39055 0.42182 0
1.49522 0.45357 0
1.48603 0.482839 0
1.39055 0.42182 0
1.382 0.44904 0
1.39857 0.394437 0
1.39055 0.42182 0
1.2933 0.364748 0
1.28589 0.39007 0
1.39055 0.42182 0
1.382 0.44904 0
1.28589 0.39007 0
1.27798 0.415242 0
1.30662 0.313692 0
1.30021 0.339286 0
1.20027 0.288159 0
1.19438 0.311669 0
1.30021 0.339286 0
1.2933 0.364748 0
1.19438 0.311669 0
1.18803 0.335059 0
1.20027 0.288159 0
1.19438 0.311669 0
1.09392 0.262626 0
1.08855 0.284053 0
1.19438 0.311669 0
1.18803 0.335059 0
1.08855 0.284053 0
1.08276 0.305371 0
1.2933 0.364748 0
1.28589 0.39007 0
1.18803 0.335059 0
1.18122 0.35832 0
1.28589 0.39007 0
1.27798 0.415242 0
1.18122 0.35832 0
1.17396 0.381443 0
1.18803 0.335059 0
1.18122 0.35832 0
1.08276 0.305371 0
1.07656 0.32657 0
1.18122 0.35832 0
1.17396 0.381443 0
1.07656 0.32657 0
1.06994 0.347644 0
1.125 -6.88864e-17 0
1.12478 0.0220879 0
1.01562 -6.21891e-17 0
1.01543 0.0199405 0
[...]
POINT_DATA 10240
SCALARS solution double 1
LOOKUP_TABLE default
0 0 0 0.0227337 0 0 0.0227337 0.0454566 0 0.0227337 0 0.0460544 0.0227337 0.0454566 0.0460544 0.0920865 0 0 0.0454566 0.0681579 0 0 0.0681579 0.090827 0.0454566 0.0681579 0.0920865 0.138074 0.0681579 0.090827 0.138074 0.183994 0 0.0460544 0 0.0703113 0.0460544 0.0920865 0.0703113 0.140587 0 0.0703113 0 0.0959358 0.0703113 0.140587 0.0959358 0.191822 0.0920865 0.138074 0.140587 0.210794 0.138074 0.183994 0.210794 0.280895 0.140587 0.210794 0.191822 0.28761 0.210794 0.280895 0.28761 0.383251 0 0 0.090827 0.113453 0 0 0.113453 0.136026 0.090827 0.113453 0.183994 0.229826 0.113453 0.136026 0.229826 0.275546 0 0 0.136026 0.158534 0 0 0.158534 0.180968 0.136026 0.158534 0.275546 0.321133 0.158534 0.180968 0.321133 0.366566 0.183994 0.229826 0.280895 0.350857 0.229826 0.275546 0.350857 0.420644 0.280895 0.350857 0.383251 0.478696 0.350857 0.420644 0.478696 0.573895 0.275546 0.321133 0.420644 0.490223 0.321133 0.366566 0.490223 0.55956 0.420644 0.490223 0.573895 0.668803 0.490223 0.55956 0.668803 0.76337 0 0.0959358 0 0.12348 0.0959358 0.191822 0.12348 0.246894 0 0.12348 0 0.153675 0.12348 0.246894 0.153675 0.307266 0.191822 0.28761 0.246894 0.370178 0.28761 0.383251 0.370178 0.493264 0.246894 0.370178 0.307266 0.460687 0.370178 0.493264 0.460687 0.613854 0 0.153675 0 0.187535 0.153675 0.307266 0.187535 0.374959 0 0.187535 0 0.226507 0.187535 0.374959 0.226507 0.452886 0.307266 0.460687 0.374959 0.562166 0.460687 0.613854 0.562166 0.749047 0.374959 0.562166 0.452886 0.678985 0.562166 0.749047 0.678985 0.904662 0.383251 0.478696 0.493264 0.61609 0.478696 0.573895 0.61609 0.73859 0.493264 0.61609 0.613854 0.766682 0.61609 0.73859 0.766682 0.919088 0.573895 0.668803 0.73859 0.8607 0.668803 0.76337 0.8607 0.982358 0.73859 0.8607 0.919088 1.07099 0.8607 0.982358 1.07099 1.2223 0.613854 0.766682 0.749047 0.935495 0.766682 0.919088 0.935495 1.1214 0.749047 0.935495 0.904662 1.12978 0.935495 1.1214 1.12978 1.35421 0.919088 1.07099 1.1214 1.30666 1.07099 1.2223 1.30666 1.49117 1.1214 1.30666 1.35421 1.5778 1.30666 1.49117 1.5778 1.80044 0 0 0.180968 0.203317 0 0 0.203317 0.225571 0.180968 0.203317 0.366566 0.411822 0.203317 0.225571 0.411822 0.456882 0 0 0.225571 0.24772 0 0 0.24772 0.269754 0.225571 0.24772 0.456882 0.501723 0.24772 0.269754 0.501723 0.546327 0.366566 0.411822 0.55956 0.628622 0.411822 0.456882 0.628622 0.697374 0.55956 0.628622 0.76337 0.857549 0.628622 0.697374 0.857549 0.951296 0.456882 0.501723 0.697374 0.765786 0.501723 0.546327 0.765786 0.833824 0.697374 0.765786 0.951296 1.04456 0.765786 0.833824 1.04456 1.13731 0 0 0.269754 0.291663 0 0 0.291663 0.313438 0.269754 0.291663 0.546327 0.590672 0.291663 0.313438 0.590672 0.634738 0 0 0.313438 0.335069 0 0 0.335069 0.356548 0.313438 0.335069 0.634738 0.678507 0.335069 0.356548 0.678507 0.72196 0.546327 0.590672 0.833824 0.901457 0.590672 0.634738 0.901457 0.968655 0.833824 0.901457 1.13731 1.22948 0.901457 0.968655 1.22948 1.32104 0.634738 0.678507 0.968655 1.03539 0.678507 0.72196 1.03539 1.10162 0.968655 1.03539 1.32104 1.41195 1.03539 1.10162 1.41195 1.50217 0.76337 0.857549 0.982358 1.1035 0.857549 0.951296 1.1035 1.22407 0.982358 1.1035 1.2223 1.37295 1.1035 1.22407 1.37295 1.52285 0.951296 1.04456 1.22407 1.34399 1.04456 1.13731 1.34399 1.46322 1.22407 1.34399 1.52285 1.67193 1.34399 1.46322 1.67193 1.82011 1.2223 1.37295 1.49117 1.67483 1.37295 1.52285 1.67483 1.85753 1.49117 1.67483 1.80044 2.02198 1.67483 1.85753 2.02198 2.2423 1.52285 1.67193 1.85753 2.03918 1.67193 1.82011 2.03918 2.21967 1.85753 2.03918 2.2423 2.46127 2.03918 2.21967 2.46127 2.67877 1.13731 1.22948 1.46322 1.5817 1.22948 1.32104 1.5817 1.69936 1.46322 1.5817 1.82011 1.96731 1.5817 1.69936 1.96731 2.11346 1.32104 1.41195 1.69936 1.81616 1.41195 1.50217 1.81616 1.93203 1.69936 1.81616 2.11346 2.25848 1.81616 1.93203 2.25848 2.40232 1.82011 1.96731 2.21967 2.39892 1.96731 2.11346 2.39892 2.57683 2.21967 2.39892 2.67877 2.89467 2.39892 2.57683 2.89467 3.10886 2.11346 2.25848 2.57683 2.75331 2.25848 2.40232 2.75331 2.92826 2.57683 2.75331 3.10886 3.32122 2.75331 2.92826 3.32122 3.53165 0 0.226507 0 0.272877 0.226507 0.452886 0.272877 0.545518 0 0.272877 0 0.329953 0.272877 0.545518 0.329953 0.659885 0.452886 0.678985 0.545518 0.817795 0.678985 0.904662 0.817795 1.08954 0.545518 0.817795 0.659885 0.989363 0.817795 1.08954 0.989363 1.31808 0 0.329953 0 0.405592 0.329953 0.659885 0.405592 0.809902 0 0.405592 0 0.505025 0.405592 0.809902 0.505025 1.01337 0.659885 0.989363 0.809902 1.21326 0.989363 1.31808 1.21326 1.6156 0.809902 1.21326 1.01337 1.52227 1.21326 1.6156 1.52227 2.02999 0.904662 1.12978 1.08954 1.36056 1.12978 1.35421 1.36056 1.63069 1.08954 1.36056 1.31808 1.6458 1.36056 1.63069 1.6458 1.97228 1.35421 1.5778 1.63069 1.89974 1.5778 1.80044 1.89974 2.16753 1.63069 1.89974 1.97228 2.29731 1.89974 2.16753 2.29731 2.62066 1.31808 1.6458 1.6156 2.0167 1.6458 1.97228 2.0167 2.41621 1.6156 2.0167 2.02999 2.53542 2.0167 2.41621 2.53542 3.03784 1.97228 2.29731 2.41621 2.81379 2.29731 2.62066 2.81379 3.20907 2.41621 2.81379 3.03784 3.53672 2.81379 3.20907 3.53672 4.03165 0 0.505025 0 0.694891 0.505025 1.01337 0.694891 1.3733 0 0.694891 0 0.863619 0.694891 1.3733 0.863619 1.78648 1.01337 1.52227 1.3733 2.04127 1.52227 2.02999 2.04127 2.7024 1.3733 2.04127 1.78648 2.74726 2.04127 2.7024 2.74726 3.72932 0 0.863619 0 2.72972 0.863619 1.78648 2.72972 5.21111 0 2.72972 50 50 2.72972 5.21111 50 50 1.78648 2.74726 5.21111 7.47302 2.74726 3.72932 7.47302 9.54029 5.21111 7.47302 50 50 7.47302 9.54029 50 50 2.02999 2.53542 2.7024 3.35858 2.53542 3.03784 3.35858 4.01056 2.7024 3.35858 3.72932 4.7197 3.35858 4.01056 4.7197 5.70843 3.03784 3.53672 4.01056 4.65832 3.53672 4.03165 4.65832 5.30136 4.01056 4.65832 5.70843 6.68781 4.65832 5.30136 6.68781 7.65203 3.72932 4.7197 9.54029 11.4344 4.7197 5.70843 11.4344 13.1739 9.54029 11.4344 50 50 11.4344 13.1739 50 50 5.70843 6.68781 13.1739 14.7751 6.68781 7.65203 14.7751 16.252 13.1739 14.7751 50 50 14.7751 16.252 50 50 1.80044 2.02198 2.16753 2.43391 2.02198 2.2423 2.43391 2.6987 2.16753 2.43391 2.62066 2.94212 2.43391 2.6987 2.94212 3.26147 2.2423 2.46127 2.6987 2.96174 2.46127 2.67877 2.96174 3.22286 2.6987 2.96174 3.26147 3.57849 2.96174 3.22286 3.57849 3.89297 2.62066 2.94212 3.20907 3.60172 2.94212 3.26147 3.60172 3.99139 3.20907 3.60172 4.03165 4.52226 3.60172 3.99139 4.52226 5.0082 3.26147 3.57849 3.99139 4.3778 3.57849 3.89297 4.3778 4.76064 3.99139 4.3778 5.0082 5.48913 4.3778 4.76064 5.48913 5.9647 2.67877 2.89467 3.22286 3.48193 2.89467 3.10886 3.48193 3.73878 3.22286 3.48193 3.89297 4.20471 3.48193 3.73878 4.20471 4.51352 3.10886 3.32122 3.73878 3.99328 3.32122 3.53165 3.99328 4.24528 3.73878 3.99328 4.51352 4.81921 3.99328 4.24528 4.81921 5.12159 3.89297 4.20471 4.76064 5.13965 4.20471 4.51352 5.13965 5.51457 4.76064 5.13965 5.9647 6.43457 5.13965 5.51457 6.43457 6.8984 4.51352 4.81921 5.51457 5.88516 4.81921 5.12159 5.88516 6.25118 5.51457 5.88516 6.8984 7.35586 5.88516 6.25118 7.35586 7.80661 4.03165 4.52226 5.30136 5.93891 4.52226 5.0082 5.93891 6.57004 5.30136 5.93891 7.65203 8.5967 5.93891 6.57004 8.5967 9.51863 5.0082 5.48913 6.57004 7.1938 5.48913 5.9647 7.1938 7.80922 6.57004 7.1938 9.51863 10.4155 7.1938 7.80922 10.4155 11.2858 7.65203 8.5967 16.252 17.6171 8.5967 9.51863 17.6171 18.8813 16.252 17.6171 50 50 17.6171 18.8813 50 50 9.51863 10.4155 18.8813 20.0541 10.4155 11.2858 20.0541 21.1441 18.8813 20.0541 50 50 20.0541 21.1441 50 50 5.9647 6.43457 7.80922 8.41539 6.43457 6.8984 8.41539 9.0115 7.80922 8.41539 11.2858 12.1285 8.41539 9.0115 12.1285 12.9432 6.8984 7.35586 9.0115 9.5968 7.35586 7.80661 9.5968 10.1707 9.0115 9.5968 12.9432 13.7295 9.5968 10.1707 13.7295 14.4876 11.2858 12.1285 21.1441 22.1587 12.1285 12.9432 22.1587 23.1047 21.1441 22.1587 50 50 22.1587 23.1047 50 50 12.9432 13.7295 23.1047 23.988 13.7295 14.4876 23.988 24.8139 23.1047 23.988 50 50 23.988 24.8139 50 50 0 0 0.356548 0.377865 0 0 0.377865 0.399012 0.356548 0.377865 0.72196 0.765077 0.377865 0.399012 0.765077 0.807842 0 0 0.399012 0.419981 0 0 0.419981 0.440762 0.399012 0.419981 0.807842 0.850237 0.419981 0.440762 0.850237 0.892245 0.72196 0.765077 1.10162 1.16734 0.765077 0.807842 1.16734 1.2325 1.10162 1.16734 1.50217 1.59165 1.16734 1.2325 1.59165 1.68036 0.807842 0.850237 1.2325 1.29708 0.850237 0.892245 1.29708 1.36105 1.2325 1.29708 1.68036 1.76825 1.29708 1.36105 1.76825 1.8553 0 0 0.440762 0.461349 0 0 0.461349 0.481733 0.440762 0.461349 0.892245 0.933849 0.461349 0.481733 0.933849 0.975033 0 0 0.481733 0.501907 0 0 0.501907 0.521864 0.481733 0.501907 0.975033 1.01578 0.501907 0.521864 1.01578 1.05608 0.892245 0.933849 1.36105 1.4244 0.933849 0.975033 1.4244 1.48709 1.36105 1.4244 1.8553 1.94146 1.4244 1.48709 1.94146 2.0267 0.975033 1.01578 1.48709 1.5491 1.01578 1.05608 1.5491 1.6104 1.48709 1.5491 2.0267 2.11099 1.5491 1.6104 2.11099 2.1943 1.50217 1.59165 1.93203 2.04693 1.59165 1.68036 2.04693 2.16079 1.93203 2.04693 2.40232 2.5449 2.04693 2.16079 2.5449 2.68615 1.68036 1.76825 2.16079 2.27359 1.76825 1.8553 2.27359 2.38525 2.16079 2.27359 2.68615 2.82601 2.27359 2.38525 2.82601 2.96443 2.40232 2.5449 2.92826 3.10162 2.5449 2.68615 3.10162 3.27328 2.92826 3.10162 3.53165 3.74004 3.10162 3.27328 3.74004 3.94628 2.68615 2.82601 3.27328 3.44318 2.82601 2.96443 3.44318 3.61124 3.27328 3.44318 3.94628 4.15027 3.44318 3.61124 4.15027 4.35193 1.8553 1.94146 2.38525 2.49575 1.94146 2.0267 2.49575 2.60502 2.38525 2.49575 2.96443 3.10133 2.49575 2.60502 3.10133 3.23667 2.0267 2.11099 2.60502 2.71304 2.11099 2.1943 2.71304 2.81976 2.60502 2.71304 3.23667 3.37039 2.71304 2.81976 3.37039 3.50244 2.96443 3.10133 3.61124 3.77738 3.10133 3.23667 3.77738 3.94153 3.61124 3.77738 4.35193 4.55115 3.77738 3.94153 4.55115 4.74786 3.23667 3.37039 3.94153 4.10363 3.37039 3.50244 4.10363 4.26361 3.94153 4.10363 4.74786 4.94197 4.10363 4.26361 4.94197 5.13341 0 0 0.521864 0.541598 0 0 0.541598 0.5611 0.521864 0.541598 1.05608 1.09592 0.541598 0.5611 1.09592 1.13528 0 0 0.5611 0.580366 0 0 0.580366 0.599389 0.5611 0.580366 1.13528 1.17415 0.580366 0.599389 1.17415 1.21251 1.05608 1.09592 1.6104 1.67098 1.09592 1.13528 1.67098 1.73082 1.6104 1.67098 2.1943 2.2766 1.67098 1.73082 2.2766 2.35785 1.13528 1.17415 1.73082 1.78989 1.17415 1.21251 1.78989 1.84818 1.73082 1.78989 2.35785 2.43803 1.78989 1.84818 2.43803 2.51711 0 0 0.599389 0.618163 0 0 0.618163 0.636684 0.599389 0.618163 1.21251 1.25036 0.618163 0.636684 1.25036 1.28769 0 0 0.636684 0.654944 0 0 0.654944 0.672941 0.636684 0.654944 1.28769 1.32448 0.654944 0.672941 1.32448 1.36072 1.21251 1.25036 1.84818 1.90566 1.25036 1.28769 1.90566 1.96232 1.84818 1.90566 2.51711 2.59508 1.90566 1.96232 2.59508 2.67189 1.28769 1.32448 1.96232 2.01814 1.32448 1.36072 2.01814 2.07311 1.96232 2.01814 2.67189 2.74754 2.01814 2.07311 2.74754 2.82199 2.1943 2.2766 2.81976 2.92513 2.2766 2.35785 2.92513 3.02913 2.81976 2.92513 3.50244 3.63276 2.92513 3.02913 3.63276 3.76132 2.35785 2.43803 3.02913 3.13171 2.43803 2.51711 3.13171 3.23284 3.02913 3.13171 3.76132 3.88806 3.13171 3.23284 3.88806 4.01294 3.50244 3.63276 4.26361 4.42142 3.63276 3.76132 4.42142 4.57698 4.26361 4.42142 5.13341 5.3221 4.42142 4.57698 5.3221 5.50797 3.76132 3.88806 4.57698 4.73026 3.88806 4.01294 4.73026 4.88119 4.57698 4.73026 5.50797 5.69096 4.73026 4.88119 5.69096 5.87101 2.51711 2.59508 3.23284 3.33249 2.59508 2.67189 3.33249 3.43062 3.23284 3.33249 4.01294 4.13593 3.33249 3.43062 4.13593 4.25698 2.67189 2.74754 3.43062 3.52722 2.74754 2.82199 3.52722 3.62224 3.43062 3.52722 4.25698 4.37606 3.52722 3.62224 4.37606 4.49314 4.01294 4.13593 4.88119 5.02973 4.13593 4.25698 5.02973 5.17584 4.88119 5.02973 5.87101 6.04806 5.02973 5.17584 6.04806 6.22206 4.25698 4.37606 5.17584 5.31947 4.37606 4.49314 5.31947 5.46058 5.17584 5.31947 6.22206 6.39296 5.31947 5.46058 6.39296 6.56072 3.53165 3.74004 4.24528 4.49465 3.74004 3.94628 4.49465 4.74126 4.24528 4.49465 5.12159 5.42051 4.49465 4.74126 5.42051 5.71579 3.94628 4.15027 4.74126 4.98499 4.15027 4.35193 4.98499 5.22572 4.74126 4.98499 5.71579 6.00728 4.98499 5.22572 6.00728 6.29485 5.12159 5.42051 6.25118 6.61242 5.42051 5.71579 6.61242 6.96867 6.25118 6.61242 7.80661 8.25036 6.61242 6.96867 8.25036 8.68683 5.71579 6.00728 6.96867 7.31974 6.00728 6.29485 7.31974 7.66545 6.96867 7.31974 8.68683 9.11575 7.31974 7.66545 9.11575 9.53688 4.35193 4.55115 5.22572 5.46334 4.55115 4.74786 5.46334 5.69775 5.22572 5.46334 6.29485 6.57834 5.46334 5.69775 6.57834 6.85765 4.74786 4.94197 5.69775 5.92885 4.94197 5.13341 5.92885 6.15654 5.69775 5.92885 6.85765 7.13264 5.92885 6.15654 7.13264 7.40322 6.29485 6.57834 7.66545 8.00564 6.57834 6.85765 8.00564 8.34016 7.66545 8.00564 9.53688 9.95002 8.00564 8.34016 9.95002 10.355 6.85765 7.13264 8.34016 8.66887 7.13264 7.40322 8.66887 8.99165 8.34016 8.66887 10.355 10.7516 8.66887 8.99165 10.7516 11.1398 7.80661 8.25036 10.1707 10.7326 8.25036 8.68683 10.7326 11.2821 10.1707 10.7326 14.4876 15.2178 10.7326 11.2821 15.2178 15.9206 8.68683 9.11575 11.2821 11.8188 9.11575 9.53688 11.8188 12.3425 11.2821 11.8188 15.9206 16.5965 11.8188 12.3425 16.5965 17.2463 14.4876 15.2178 24.8139 25.5872 15.2178 15.9206 25.5872 26.3122 24.8139 25.5872 50 50 25.5872 26.3122 50 50 15.9206 16.5965 26.3122 26.9927 16.5965 17.2463 26.9927 27.6322 26.3122 26.9927 50 50 26.9927 27.6322 50 50 9.53688 9.95002 12.3425 12.853 9.95002 10.355 12.853 13.3502 12.3425 12.853 17.2463 17.8707 12.853 13.3502 17.8707 18.4704 10.355 10.7516 13.3502 13.834 10.7516 11.1398 13.834 14.3044 13.3502 13.834 18.4704 19.0463 13.834 14.3044 19.0463 19.5991 17.2463 17.8707 27.6322 28.2338 17.8707 18.4704 28.2338 28.8003 27.6322 28.2338 50 50 28.2338 28.8003 50 50 18.4704 19.0463 28.8003 29.3343 19.0463 19.5991 29.3343 29.8382 28.8003 29.3343 50 50 29.3343 29.8382 50 50 5.13341 5.3221 6.15654 6.38074 5.3221 5.50797 6.38074 6.60136 6.15654 6.38074 7.40322 7.66927 6.38074 6.60136 7.66927 7.93072 5.50797 5.69096 6.60136 6.81835 5.69096 5.87101 6.81835 7.03161 6.60136 6.81835 7.93072 8.18747 6.81835 7.03161 8.18747 8.43946 7.40322 7.66927 8.99165 9.30837 7.66927 7.93072 9.30837 9.61896 8.99165 9.30837 11.1398 11.5194 9.30837 9.61896 11.5194 11.8903 7.93072 8.18747 9.61896 9.92332 8.18747 8.43946 9.92332 10.2214 9.61896 9.92332 11.8903 12.2526 9.92332 10.2214 12.2526 12.6061 5.87101 6.04806 7.03161 7.2411 6.04806 6.22206 7.2411 7.44675 7.03161 7.2411 8.43946 8.68661 7.2411 7.44675 8.68661 8.92888 6.22206 6.39296 7.44675 7.64852 6.39296 6.56072 7.64852 7.84636 7.44675 7.64852 8.92888 9.1662 7.64852 7.84636 9.1662 9.39854 8.43946 8.68661 10.2214 10.5131 8.68661 8.92888 10.5131 10.7984 10.2214 10.5131 12.6061 12.9509 10.5131 10.7984 12.9509 13.2869 8.92888 9.1662 10.7984 11.0772 9.1662 9.39854 11.0772 11.3496 10.7984 11.0772 13.2869 13.6141 11.0772 11.3496 13.6141 13.9327 11.1398 11.5194 14.3044 14.7614 11.5194 11.8903 14.7614 15.2052 14.3044 14.7614 19.5991 20.1298 14.7614 15.2052 20.1298 20.639 11.8903 12.2526 15.2052 15.6357 12.2526 12.6061 15.6357 16.0533 15.2052 15.6357 20.639 21.1277 15.6357 16.0533 21.1277 21.5965 19.5991 20.1298 29.8382 30.3141 20.1298 20.639 30.3141 30.7638 29.8382 30.3141 50 50 30.3141 30.7638 50 50 20.639 21.1277 30.7638 31.1892 21.1277 21.5965 31.1892 31.5919 30.7638 31.1892 50 50 31.1892 31.5919 50 50 12.6061 12.9509 16.0533 16.4581 12.9509 13.2869 16.4581 16.8502 16.0533 16.4581 21.5965 22.0463 16.4581 16.8502 22.0463 22.4778 13.2869 13.6141 16.8502 17.2298 13.6141 13.9327 17.2298 17.5973 16.8502 17.2298 22.4778 22.8918 17.2298 17.5973 22.8918 23.2888 21.5965 22.0463 31.5919 31.9733 22.0463 22.4778 31.9733 32.3349 31.5919 31.9733 50 50 31.9733 32.3349 50 50 22.4778 22.8918 32.3349 32.6778 22.8918 23.2888 32.6778 33.0033 32.3349 32.6778 50 50 32.6778 33.0033 50 50 0 0 0.672941 0.690668 0 0 0.690668 0.708122 0.672941 0.690668 1.36072 1.3964 0.690668 0.708122 1.3964 1.43152 0 0 0.708122 0.725298 0 0 0.725298 0.742193 0.708122 0.725298 1.43152 1.46607 0.725298 0.742193 1.46607 1.50003 1.36072 1.3964 2.07311 2.12722 1.3964 1.43152 2.12722 2.18044 2.07311 2.12722 2.82199 2.89524 2.12722 2.18044 2.89524 2.96725 1.43152 1.46607 2.18044 2.23276 1.46607 1.50003 2.23276 2.28418 2.18044 2.23276 2.96725 3.03802 2.23276 2.28418 3.03802 3.10753 0 0 0.742193 0.758803 0 0 0.758803 0.775124 0.742193 0.758803 1.50003 1.53341 0.758803 0.775124 1.53341 1.56618 0 0 0.775124 0.791153 0 0 0.791153 0.806888 0.775124 0.791153 1.56618 1.59836 0.791153 0.806888 1.59836 1.62993 1.50003 1.53341 2.28418 2.33468 1.53341 1.56618 2.33468 2.38425 2.28418 2.33468 3.10753 3.17576 2.33468 2.38425 3.17576 3.24269 1.56618 1.59836 2.38425 2.43289 1.59836 1.62993 2.43289 2.48057 2.38425 2.43289 3.24269 3.30832 2.43289 2.48057 3.30832 3.37263 2.82199 2.89524 3.62224 3.71567 2.89524 2.96725 3.71567 3.80748 3.62224 3.71567 4.49314 4.60818 3.71567 3.80748 4.60818 4.72116 2.96725 3.03802 3.80748 3.89766 3.03802 3.10753 3.89766 3.98617 3.80748 3.89766 4.72116 4.83205 3.89766 3.98617 4.83205 4.94083 4.49314 4.60818 5.46058 5.59914 4.60818 4.72116 5.59914 5.73511 5.46058 5.59914 6.56072 6.72531 5.59914 5.73511 6.72531 6.88667 4.72116 4.83205 5.73511 5.86847 4.83205 4.94083 5.86847 5.99919 5.73511 5.86847 6.88667 7.04479 5.86847 5.99919 7.04479 7.19963 3.10753 3.17576 3.98617 4.073 3.17576 3.24269 4.073 4.15813 3.98617 4.073 4.94083 5.04747 4.073 4.15813 5.04747 5.15195 3.24269 3.30832 4.15813 4.24155 3.30832 3.37263 4.24155 4.32324 4.15813 4.24155 5.15195 5.25426 4.24155 4.32324 5.25426 5.35437 4.94083 5.04747 5.99919 6.12724 5.04747 5.15195 6.12724 6.2526 5.99919 6.12724 7.19963 7.35116 6.12724 6.2526 7.35116 7.49938 5.15195 5.25426 6.2526 6.37525 5.25426 5.35437 6.37525 6.49517 6.2526 6.37525 7.49938 7.64424 6.37525 6.49517 7.64424 7.78575 0 0 0.806888 0.822326 0 0 0.822326 0.837463 0.806888 0.822326 1.62993 1.66088 0.822326 0.837463 1.66088 1.69121 0 0 0.837463 0.852299 0 0 0.852299 0.86683 0.837463 0.852299 1.69121 1.72092 0.852299 0.86683 1.72092 1.75 1.62993 1.66088 2.48057 2.5273 1.66088 1.69121 2.5273 2.57307 2.48057 2.5273 3.37263 3.43561 2.5273 2.57307 3.43561 3.49725 1.69121 1.72092 2.57307 2.61786 1.72092 1.75 2.61786 2.66168 2.57307 2.61786 3.49725 3.55755 2.61786 2.66168 3.55755 3.61649 0 0 0.86683 0.881055 0 0 0.881055 0.894972 0.86683 0.881055 1.75 1.77844 0.881055 0.894972 1.77844 1.80625 0 0 0.894972 0.90858 0 0 0.90858 0.921877 0.894972 0.90858 1.80625 1.83343 0.90858 0.921877 1.83343 1.85996 1.75 1.77844 2.66168 2.70451 1.77844 1.80625 2.70451 2.74636 2.66168 2.70451 3.61649 3.67406 2.70451 2.74636 3.67406 3.73026 1.80625 1.83343 2.74636 2.78722 1.83343 1.85996 2.78722 2.82707 2.74636 2.78722 3.73026 3.78509 2.78722 2.82707 3.78509 3.83854 3.37263 3.43561 4.32324 4.40319 3.43561 3.49725 4.40319 4.48138 4.32324 4.40319 5.35437 5.45228 4.40319 4.48138 5.45228 5.54797 3.49725 3.55755 4.48138 4.55781 3.55755 3.61649 4.55781 4.63247 4.48138 4.55781 5.54797 5.64142 4.55781 4.63247 5.64142 5.73263 5.35437 5.45228 6.49517 6.61235 5.45228 5.54797 6.61235 6.72678 6.49517 6.61235 7.78575 7.92389 6.61235 6.72678 7.92389 8.05864 5.54797 5.64142 6.72678 6.83844 5.64142 5.73263 6.83844 6.94732 6.72678 6.83844 8.05864 8.19 6.83844 6.94732 8.19 8.31797 3.61649 3.67406 4.63247 4.70534 3.67406 3.73026 4.70534 4.77642 4.63247 4.70534 5.73263 5.82159 4.70534 4.77642 5.82159 5.9083 3.73026 3.78509 4.77642 4.84571 3.78509 3.83854 4.84571 4.91319 4.77642 4.84571 5.9083 5.99273 4.84571 4.91319 5.99273 6.0749 5.73263 5.82159 6.94732 7.05342 5.82159 5.9083 7.05342 7.15673 6.94732 7.05342 8.31797 8.44253 7.05342 7.15673 8.44253 8.56369 5.9083 5.99273 7.15673 7.25724 5.99273 6.0749 7.25724 7.35496 7.15673 7.25724 8.56369 8.68145 7.25724 7.35496 8.68145 8.79581 6.56072 6.72531 7.84636 8.04022 6.72531 6.88667 8.04022 8.23007 7.84636 8.04022 9.39854 9.62586 8.04022 8.23007 9.62586 9.84814 6.88667 7.04479 8.23007 8.41589 7.04479 7.19963 8.41589 8.59764 8.23007 8.41589 9.84814 10.0653 8.41589 8.59764 10.0653 10